ITEM: TIMESTEP
0
ITEM: NUMBER OF ATOMS
900
ITEM: BOX BOUNDS pp pp pp
0.0000000000000000e+00 2.1989592999999999e+01
0.0000000000000000e+00 2.1989592999999999e+01
0.0000000000000000e+00 2.1989592920000000e+03
ITEM: ATOMS id mol type q xs ys zs
435 25 2 -0.0543881 0.578951 0.63164 0.0368117
436 25 2 -0.018412 0.63661 0.631144 0.0365371
437 25 2 -0.0543881 0.656129 0.58188 0.0361805
445 25 1 0.0629322 0.548114 0.59344 0.036752
446 25 1 0.0629322 0.626565 0.542857 0.0361104
438 25 2 -0.0616365 0.713588 0.582103 0.0359107
439 25 2 -0.0616365 0.752247 0.631531 0.0359937
447 25 1 0.0622985 0.728094 0.543671 0.0356359
448 25 1 0.0622985 0.796995 0.631753 0.0357839
433 25 2 -0.0616365 0.598911 0.730396 0.0372478
434 25 2 -0.0616365 0.560251 0.680972 0.0371648
442 25 2 -0.0543881 0.65637 0.730618 0.036978
443 25 1 0.0622985 0.584404 0.768827 0.0375226
444 25 1 0.0622985 0.515507 0.680745 0.0373746
440 25 2 -0.0543881 0.733547 0.680858 0.0363468
441 25 2 -0.018412 0.675888 0.681359 0.0366214
449 25 1 0.0629322 0.764389 0.719058 0.0364064
450 25 1 0.0629322 0.685938 0.769646 0.0370481
747 42 2 -0.018412 0.00757208 0.306963 0.0520959
748 42 2 -0.0543881 0.061061 0.327414 0.0523786
755 42 1 0.0629322 0.0342847 0.212191 0.0520509
756 42 1 0.0629322 0.0972463 0.295549 0.0524888
743 42 2 -0.0543881 0.907688 0.328833 0.0516745
744 42 2 -0.0616365 0.900017 0.26749 0.0515304
745 42 2 -0.0616365 0.945675 0.225834 0.0516669
746 42 2 -0.0543881 0.999127 0.245412 0.0519478
753 42 1 0.0622985 0.858383 0.252301 0.0513116
754 42 1 0.0622985 0.939758 0.178062 0.0515548
739 42 2 -0.0616365 0.0687328 0.388761 0.0525228
740 42 2 -0.0616365 0.0230749 0.430413 0.0523863
749 42 1 0.0622985 0.110366 0.40395 0.0527416
750 42 1 0.0622985 0.0289959 0.478185 0.0524983
741 42 2 -0.0543881 0.969622 0.410835 0.0521053
742 42 2 -0.018412 0.961182 0.349288 0.0519573
751 42 1 0.0629322 0.934465 0.44406 0.0520022
752 42 1 0.0629322 0.871503 0.360702 0.0515643
182 11 2 -0.0616365 0.409139 0.485516 0.0666663
183 11 2 -0.0543881 0.446079 0.537131 0.0666737
192 11 1 0.0622985 0.404209 0.459295 0.0662502
193 11 1 0.0629322 0.469536 0.550365 0.0662589
194 11 1 0.0629322 0.514157 0.63827 0.0668167
181 11 2 -0.0616365 0.378652 0.467667 0.0671914
184 11 2 -0.018412 0.452987 0.571566 0.0672072
185 11 2 -0.0543881 0.489977 0.623613 0.0672224
186 11 2 -0.0616365 0.496348 0.657334 0.0677565
187 11 2 -0.0616365 0.465861 0.639484 0.0682816
188 11 2 -0.0543881 0.428921 0.587869 0.0682742
189 11 2 -0.018412 0.422013 0.553435 0.0677407
190 11 2 -0.0543881 0.385023 0.501387 0.0677254
191 11 1 0.0622985 0.349879 0.427484 0.0671861
196 11 1 0.0622985 0.470791 0.665706 0.0686977
197 11 1 0.0629322 0.405465 0.574635 0.068689
198 11 1 0.0629322 0.360843 0.48673 0.0681312
195 11 1 0.0622985 0.525121 0.697516 0.0677617
309 18 2 -0.0543881 0.858256 0.294435 0.0987125
310 18 2 -0.018412 0.865464 0.242387 0.0983494
311 18 2 -0.0543881 0.914842 0.236248 0.0979491
312 18 2 -0.0616365 0.921336 0.18421 0.0975913
313 18 2 -0.0616365 0.878593 0.137679 0.0976292
314 18 2 -0.0543881 0.829247 0.143063 0.0980248
315 18 2 -0.018412 0.822039 0.19511 0.0983879
319 18 1 0.0629322 0.891181 0.33127 0.0986892
320 18 1 0.0629322 0.948699 0.27212 0.0979132
321 18 1 0.0622985 0.959772 0.180072 0.0972834
322 18 1 0.0622985 0.8836 0.097146 0.0973509
323 18 1 0.0629322 0.796322 0.106232 0.0980481
307 18 2 -0.0616365 0.766167 0.253288 0.099146
308 18 2 -0.0616365 0.808905 0.299819 0.0991082
316 18 2 -0.0543881 0.772661 0.201254 0.0987883
317 18 1 0.0622985 0.727726 0.257431 0.0994539
324 18 1 0.0629322 0.738799 0.165378 0.0988242
318 18 1 0.0622985 0.803898 0.340356 0.0993864
594 33 1 0.0629322 0.597251 0.650826 0.113667
577 33 2 -0.0616365 0.641076 0.715629 0.11425
578 33 2 -0.0616365 0.639648 0.774066 0.114493
579 33 2 -0.0543881 0.592503 0.813685 0.114338
580 33 2 -0.018412 0.546149 0.795313 0.113939
581 33 2 -0.0543881 0.49839 0.834595 0.11378
582 33 2 -0.0616365 0.452673 0.815622 0.113382
583 33 2 -0.0616365 0.454101 0.757181 0.11314
584 33 2 -0.0543881 0.501251 0.717567 0.113294
585 33 2 -0.018412 0.5476 0.735939 0.113693
586 33 2 -0.0543881 0.595359 0.696652 0.113852
589 33 1 0.0629322 0.592162 0.859166 0.114533
590 33 1 0.0629322 0.496499 0.880426 0.113965
591 33 1 0.0622985 0.415988 0.846505 0.113263
592 33 1 0.0622985 0.41853 0.742356 0.11283
593 33 1 0.0629322 0.501587 0.672086 0.113099
587 33 1 0.0622985 0.677762 0.684747 0.114369
588 33 1 0.0622985 0.675219 0.788891 0.114802
73 5 2 -0.0616365 0.790647 0.951455 0.129092
74 5 2 -0.0616365 0.798691 0.921731 0.128539
75 5 2 -0.0543881 0.842626 0.876237 0.128484
76 5 2 -0.018412 0.879089 0.859902 0.128982
77 5 2 -0.0543881 0.923487 0.814235 0.128935
78 5 2 -0.0616365 0.959354 0.798546 0.129435
79 5 2 -0.0616365 0.951305 0.828269 0.129988
80 5 2 -0.0543881 0.907375 0.873763 0.130043
81 5 2 -0.018412 0.870912 0.890098 0.129544
82 5 2 -0.0543881 0.826514 0.935765 0.129592
83 5 1 0.0622985 0.756458 0.98688 0.129135
84 5 1 0.0622985 0.770796 0.93391 0.12815
85 5 1 0.0629322 0.848247 0.853531 0.128048
86 5 1 0.0629322 0.93044 0.790501 0.128507
87 5 1 0.0622985 0.993543 0.763116 0.129392
88 5 1 0.0622985 0.979204 0.816091 0.130377
89 5 1 0.0629322 0.901754 0.89647 0.130478
90 5 1 0.0629322 0.819556 0.959499 0.13002
499 28 1 0.0629322 0.209276 0.321052 0.1592
500 28 1 0.0629322 0.311611 0.280542 0.158933
487 28 2 -0.0616365 0.187075 0.315354 0.160726
488 28 2 -0.0616365 0.175401 0.326318 0.160113
489 28 2 -0.0543881 0.219226 0.312157 0.159677
490 28 2 -0.018412 0.275321 0.286822 0.159847
491 28 2 -0.0543881 0.319901 0.272306 0.159413
495 28 2 -0.018412 0.287181 0.27568 0.160469
496 28 2 -0.0543881 0.242601 0.290192 0.160903
497 28 1 0.0622985 0.152991 0.326363 0.161066
504 28 1 0.0629322 0.250887 0.281956 0.161383
492 28 2 -0.0616365 0.375428 0.247149 0.15959
493 28 2 -0.0616365 0.387097 0.23618 0.160203
494 28 2 -0.0543881 0.343276 0.250346 0.16064
501 28 1 0.0622985 0.409512 0.236139 0.15925
502 28 1 0.0622985 0.430313 0.216593 0.160341
503 28 1 0.0629322 0.353226 0.241451 0.161116
498 28 1 0.0622985 0.13219 0.345905 0.159975
840 47 1 0.0622985 0.984297 0.656952 0.174659
830 47 2 -0.0616365 0.0175583 0.667566 0.175009
831 47 2 -0.0543881 0.0715702 0.69708 0.174853
833 47 2 -0.0543881 0.169644 0.740832 0.175151
841 47 1 0.0629322 0.079524 0.709067 0.17438
842 47 1 0.0629322 0.179217 0.753543 0.174683
829 47 2 -0.0616365 0.00633936 0.651758 0.175611
838 47 2 -0.0543881 0.049105 0.665419 0.17606
846 47 1 0.0629322 0.0395323 0.652709 0.176528
839 47 1 0.0622985 0.964306 0.628779 0.175733
832 47 2 -0.018412 0.115073 0.711155 0.175299
834 47 2 -0.0616365 0.21241 0.754493 0.1756
835 47 2 -0.0616365 0.201191 0.738686 0.176202
836 47 2 -0.0543881 0.147179 0.709172 0.176357
837 47 2 -0.018412 0.103676 0.695092 0.175912
843 47 1 0.0622985 0.254443 0.777472 0.175478
844 47 1 0.0622985 0.234452 0.749295 0.176552
845 47 1 0.0629322 0.139225 0.69718 0.176831
239 14 2 -0.0543881 0.627169 0.383299 0.191062
240 14 2 -0.0616365 0.635796 0.373158 0.190441
241 14 2 -0.0616365 0.598742 0.402258 0.190018
242 14 2 -0.0543881 0.552962 0.441582 0.190215
243 14 2 -0.018412 0.543675 0.452287 0.190838
244 14 2 -0.0543881 0.497831 0.491701 0.191044
250 14 1 0.0622985 0.605414 0.3944 0.189535
251 14 1 0.0629322 0.524466 0.463906 0.189878
252 14 1 0.0629322 0.468426 0.514853 0.190721
249 14 1 0.0622985 0.671449 0.342535 0.190288
235 14 2 -0.0616365 0.489204 0.501842 0.191665
236 14 2 -0.0616365 0.526258 0.472742 0.192087
237 14 2 -0.0543881 0.572039 0.433419 0.19189
238 14 2 -0.018412 0.581325 0.422714 0.191268
245 14 1 0.0622985 0.453546 0.532466 0.191817
246 14 1 0.0622985 0.519587 0.4806 0.192571
247 14 1 0.0629322 0.600534 0.411094 0.192227
248 14 1 0.0629322 0.656574 0.360148 0.191385
407 23 1 0.0622985 0.223424 0.00443423 0.222246
397 23 2 -0.0616365 0.214565 0.95753 0.222118
398 23 2 -0.0616365 0.161608 0.942678 0.221805
399 23 2 -0.0543881 0.150294 0.882408 0.221641
400 23 2 -0.018412 0.19185 0.836205 0.221788
401 23 2 -0.0543881 0.181158 0.775349 0.221627
402 23 2 -0.0616365 0.222937 0.729973 0.221777
403 23 2 -0.0616365 0.27589 0.744821 0.22209
404 23 2 -0.0543881 0.287209 0.80509 0.222254
405 23 2 -0.018412 0.245653 0.851294 0.222107
406 23 2 -0.0543881 0.256339 0.91215 0.222268
408 23 1 0.0622985 0.129052 0.977972 0.221688
409 23 1 0.0629322 0.10867 0.87169 0.221396
410 23 1 0.0629322 0.140044 0.762865 0.221382
411 23 1 0.0622985 0.214079 0.683064 0.221649
412 23 1 0.0622985 0.30845 0.709531 0.222207
413 23 1 0.0629322 0.328833 0.815809 0.222499
414 23 1 0.0629322 0.297454 0.924633 0.222513
631 36 2 -0.0616365 0.365532 0.200313 0.238202
632 36 2 -0.0616365 0.368543 0.140789 0.238415
633 36 2 -0.0543881 0.397292 0.0960818 0.238068
634 36 2 -0.018412 0.423405 0.110384 0.237503
635 36 2 -0.0543881 0.452496 0.0659585 0.237148
636 36 2 -0.0616365 0.478222 0.0809383 0.236588
637 36 2 -0.0616365 0.475207 0.140462 0.236375
638 36 2 -0.0543881 0.446457 0.185169 0.236722
639 36 2 -0.018412 0.420344 0.170867 0.237287
640 36 2 -0.0543881 0.391258 0.215293 0.237642
641 36 1 0.0622985 0.343158 0.235157 0.238472
642 36 1 0.0622985 0.348533 0.129075 0.238852
643 36 1 0.0629322 0.399189 0.0498236 0.238242
644 36 1 0.0629322 0.455306 0.0192045 0.237307
645 36 1 0.0622985 0.500591 0.04609 0.236318
646 36 1 0.0622985 0.495221 0.152177 0.235938
647 36 1 0.0629322 0.44456 0.231423 0.236548
648 36 1 0.0629322 0.388447 0.262047 0.237483
51 3 1 0.0622985 0.243588 0.83781 0.251464
52 3 1 0.0622985 0.315381 0.751646 0.251344
47 3 1 0.0622985 0.256412 0.662191 0.25422
54 3 1 0.0629322 0.310929 0.647311 0.253252
37 3 2 -0.0616365 0.248877 0.693564 0.253846
38 3 2 -0.0616365 0.208594 0.74191 0.253913
39 3 2 -0.0543881 0.198958 0.782175 0.253432
40 3 2 -0.018412 0.229536 0.774562 0.252877
41 3 2 -0.0543881 0.220368 0.814649 0.252388
42 3 2 -0.0616365 0.251123 0.806436 0.251839
43 3 2 -0.0616365 0.291406 0.75809 0.251771
44 3 2 -0.0543881 0.301042 0.717826 0.252252
45 3 2 -0.018412 0.270464 0.725439 0.252808
46 3 2 -0.0543881 0.279632 0.685351 0.253297
48 3 1 0.0622985 0.184619 0.748349 0.254341
49 3 1 0.0629322 0.167311 0.819679 0.253494
50 3 1 0.0629322 0.189067 0.85269 0.252432
53 3 1 0.0629322 0.332689 0.680322 0.252191
847 48 2 -0.0616365 0.125496 0.287468 0.267384
848 48 2 -0.0616365 0.0640849 0.302775 0.267374
857 48 1 0.0622985 0.155951 0.304953 0.267037
858 48 1 0.0622985 0.0465129 0.332234 0.267018
849 48 2 -0.0543881 0.0250255 0.280278 0.267821
850 48 2 -0.018412 0.0469313 0.242151 0.268284
851 48 2 -0.0543881 0.00824936 0.219131 0.268737
852 48 2 -0.0616365 0.0307555 0.181286 0.269195
853 48 2 -0.0616365 0.0921618 0.165974 0.269205
854 48 2 -0.0543881 0.131226 0.188471 0.268758
855 48 2 -0.018412 0.10932 0.226598 0.268295
856 48 2 -0.0543881 0.148002 0.249623 0.267842
861 48 1 0.0622985 0.000300142 0.163796 0.269542
862 48 1 0.0622985 0.109738 0.136515 0.269561
863 48 1 0.0629322 0.179062 0.176011 0.268774
864 48 1 0.0629322 0.196115 0.238167 0.267842
859 48 1 0.0629322 0.977189 0.292738 0.267806
860 48 1 0.0629322 0.960136 0.230586 0.268737
452 26 2 -0.0616365 0.881581 0.487826 0.282963
453 26 2 -0.0543881 0.918707 0.436338 0.282958
462 26 1 0.0622985 0.878611 0.516458 0.282561
463 26 1 0.0629322 0.944283 0.425642 0.282549
464 26 1 0.0629322 0.986498 0.334681 0.283076
456 26 2 -0.0616365 0.964097 0.310038 0.283992
457 26 2 -0.0616365 0.930922 0.324672 0.284511
465 26 1 0.0622985 0.99302 0.26996 0.283988
466 26 1 0.0622985 0.933887 0.296045 0.284913
451 26 2 -0.0616365 0.848401 0.502465 0.283482
454 26 2 -0.018412 0.923105 0.398816 0.283473
455 26 2 -0.0543881 0.960236 0.346855 0.283477
458 26 2 -0.0543881 0.893796 0.376164 0.284515
459 26 2 -0.018412 0.889393 0.413687 0.284001
460 26 2 -0.0543881 0.852262 0.465648 0.283997
461 26 1 0.0622985 0.819483 0.542538 0.283486
467 26 1 0.0629322 0.868215 0.386856 0.284925
468 26 1 0.0629322 0.826 0.477821 0.284398
721 41 2 -0.0616365 0.624832 0.547054 0.299014
731 41 1 0.0622985 0.580033 0.537591 0.298828
738 41 1 0.0629322 0.659271 0.58183 0.29817
726 41 2 -0.0616365 0.843917 0.609193 0.299355
727 41 2 -0.0616365 0.83143 0.622031 0.298748
728 41 2 -0.0543881 0.773866 0.609848 0.298509
729 41 2 -0.018412 0.728031 0.584645 0.298876
730 41 2 -0.0543881 0.669881 0.572112 0.298643
736 41 1 0.0622985 0.866469 0.64154 0.298459
737 41 1 0.0629322 0.764971 0.620189 0.298034
722 41 2 -0.0616365 0.63732 0.534221 0.299621
732 41 1 0.0622985 0.60228 0.514712 0.29991
723 41 2 -0.0543881 0.694883 0.546404 0.299859
724 41 2 -0.018412 0.740719 0.571602 0.299493
725 41 2 -0.0543881 0.798869 0.58414 0.299725
733 41 1 0.0629322 0.703783 0.536063 0.300335
734 41 1 0.0629322 0.809483 0.574422 0.300198
735 41 1 0.0622985 0.88872 0.618661 0.299541
129 8 2 -0.0543881 0.217075 0.237822 0.31489
130 8 2 -0.018412 0.205306 0.288295 0.314517
131 8 2 -0.0543881 0.228117 0.291765 0.313922
139 8 1 0.0629322 0.244366 0.200154 0.314722
140 8 1 0.0629322 0.255594 0.254989 0.313738
132 8 2 -0.0616365 0.215993 0.342266 0.313557
133 8 2 -0.0616365 0.180945 0.389912 0.313782
134 8 2 -0.0543881 0.157925 0.387179 0.314373
135 8 2 -0.018412 0.169694 0.336705 0.314746
141 8 1 0.0622985 0.233938 0.34434 0.313097
142 8 1 0.0622985 0.171477 0.429253 0.313498
143 8 1 0.0629322 0.130635 0.424846 0.314541
127 8 2 -0.0616365 0.159007 0.282734 0.315707
128 8 2 -0.0616365 0.194055 0.235088 0.315481
136 8 2 -0.0543881 0.146883 0.333235 0.315342
137 8 1 0.0622985 0.141062 0.280655 0.316167
138 8 1 0.0622985 0.203524 0.195752 0.315765
144 8 1 0.0629322 0.119411 0.370011 0.315526
290 17 2 -0.0616365 0.546695 0.0281 0.344659
291 17 2 -0.0543881 0.592426 0.0404649 0.345082
293 17 2 -0.0543881 0.654801 0.00881813 0.345949
300 17 1 0.0622985 0.534412 0.0620797 0.344322
301 17 1 0.0629322 0.615209 0.0843357 0.345066
302 17 1 0.0629322 0.678616 0.0521614 0.345948
289 17 2 -0.0616365 0.516872 0.972283 0.34467
292 17 2 -0.018412 0.608902 0.997108 0.345521
295 17 2 -0.0616365 0.640803 0.909398 0.346393
296 17 2 -0.0543881 0.595077 0.897033 0.345971
297 17 2 -0.018412 0.578601 0.940395 0.345532
298 17 2 -0.0543881 0.532697 0.928685 0.345104
299 17 1 0.0622985 0.481264 0.962605 0.344341
304 17 1 0.0622985 0.653086 0.875419 0.346731
305 17 1 0.0629322 0.572293 0.853163 0.345986
306 17 1 0.0629322 0.508886 0.885337 0.345105
294 17 2 -0.0616365 0.670626 0.965216 0.346383
303 17 1 0.0622985 0.706234 0.974898 0.346711
605 34 1 0.0622985 0.74608 0.922891 0.359727
606 34 1 0.0622985 0.85817 0.93501 0.35969
598 34 2 -0.018412 0.828828 0.0190818 0.360963
599 34 2 -0.0543881 0.857947 0.0539028 0.361413
600 34 2 -0.0616365 0.824535 0.0815431 0.361876
601 34 2 -0.0616365 0.761642 0.0747399 0.361897
602 34 2 -0.0543881 0.731992 0.0402781 0.361454
603 34 2 -0.018412 0.764925 0.0121694 0.360984
608 34 1 0.0629322 0.907052 0.0597328 0.361404
609 34 1 0.0622985 0.847669 0.10836 0.362221
610 34 1 0.0622985 0.73558 0.0962364 0.362257
611 34 1 0.0629322 0.682823 0.035485 0.361477
595 34 2 -0.0616365 0.769214 0.949708 0.360071
596 34 2 -0.0616365 0.832107 0.956511 0.360051
597 34 2 -0.0543881 0.861758 0.990968 0.360494
604 34 2 -0.0543881 0.735803 0.977348 0.360535
607 34 1 0.0629322 0.910926 0.995766 0.36047
612 34 1 0.0629322 0.686698 0.971518 0.360543
93 6 2 -0.0543881 0.66591 0.0882508 0.375781
104 6 1 0.0629322 0.653627 0.207284 0.375507
103 6 1 0.0629322 0.685761 0.0999154 0.375343
102 6 1 0.0622985 0.690881 0.99382 0.375701
91 6 2 -0.0616365 0.643864 0.0120512 0.37654
94 6 2 -0.018412 0.637738 0.133149 0.376137
95 6 2 -0.0543881 0.6343 0.193878 0.375943
96 6 2 -0.0616365 0.606132 0.237949 0.376302
97 6 2 -0.0616365 0.581061 0.221905 0.376861
98 6 2 -0.0543881 0.58409 0.161749 0.377061
99 6 2 -0.018412 0.612262 0.116851 0.376705
100 6 2 -0.0543881 0.6157 0.056122 0.3769
105 6 1 0.0622985 0.603804 0.284771 0.376146
106 6 1 0.0622985 0.559124 0.25618 0.377141
107 6 1 0.0629322 0.56424 0.150085 0.377499
108 6 1 0.0629322 0.596373 0.0427157 0.377335
92 6 2 -0.0616365 0.668939 0.0280951 0.375981
101 6 1 0.0622985 0.646197 0.965229 0.376696
541 31 2 -0.0616365 0.0350666 0.585131 0.406299
542 31 2 -0.0616365 0.00990469 0.528191 0.406185
543 31 2 -0.0543881 0.00164169 0.487021 0.406661
544 31 2 -0.018412 0.0184678 0.502319 0.407258
549 31 2 -0.018412 0.0440345 0.560179 0.407374
550 31 2 -0.0543881 0.0520383 0.601057 0.40689
551 31 1 0.0622985 0.0415242 0.617219 0.405929
558 31 1 0.0629322 0.0716202 0.645755 0.40697
552 31 1 0.0622985 0.996676 0.515739 0.405725
553 31 1 0.0629322 0.98191 0.442746 0.406563
545 31 2 -0.0543881 0.010464 0.461441 0.407742
546 31 2 -0.0616365 0.0274312 0.477367 0.408333
547 31 2 -0.0616365 0.0525931 0.534312 0.408447
548 31 2 -0.0543881 0.0608561 0.575481 0.407971
555 31 1 0.0622985 0.0209781 0.445279 0.408703
556 31 1 0.0622985 0.065822 0.546763 0.408906
557 31 1 0.0629322 0.0805881 0.619757 0.408069
554 31 1 0.0629322 0.990878 0.416743 0.407662
779 44 2 -0.0543881 0.280242 0.475393 0.422573
780 44 2 -0.0616365 0.25885 0.494934 0.423138
787 44 1 0.0629322 0.333208 0.435056 0.421541
788 44 1 0.0629322 0.249823 0.477007 0.422183
789 44 1 0.0622985 0.212469 0.511415 0.423182
775 44 2 -0.0616365 0.459899 0.411313 0.422389
776 44 2 -0.0616365 0.421831 0.412945 0.421883
777 44 2 -0.0543881 0.362271 0.434124 0.421942
778 44 2 -0.018412 0.340034 0.453951 0.422506
783 44 2 -0.018412 0.378716 0.452296 0.42302
784 44 2 -0.0543881 0.438512 0.430858 0.422954
785 44 1 0.0622985 0.50628 0.394832 0.422344
786 44 1 0.0622985 0.438435 0.397738 0.421443
792 44 1 0.0629322 0.468926 0.429244 0.423343
781 44 2 -0.0616365 0.296918 0.493306 0.423643
790 44 1 0.0622985 0.280314 0.508513 0.424083
782 44 2 -0.0543881 0.356478 0.472128 0.423585
791 44 1 0.0629322 0.385541 0.471196 0.423985
217 13 2 -0.0616365 0.796322 0.662277 0.439322
218 13 2 -0.0616365 0.741323 0.649989 0.439034
219 13 2 -0.0543881 0.735443 0.659412 0.438409
228 13 1 0.0622985 0.702933 0.633063 0.439295
229 13 1 0.0629322 0.692109 0.649548 0.438192
220 13 2 -0.018412 0.784557 0.681259 0.438064
221 13 2 -0.0543881 0.77941 0.690986 0.437435
222 13 2 -0.0616365 0.828674 0.712724 0.437099
223 13 2 -0.0616365 0.883677 0.725011 0.437387
224 13 2 -0.0543881 0.889557 0.715589 0.438012
225 13 2 -0.018412 0.840443 0.693742 0.438357
226 13 2 -0.0543881 0.845591 0.684014 0.438986
230 13 1 0.0629322 0.736803 0.681645 0.437202
231 13 1 0.0622985 0.824044 0.720041 0.436612
232 13 1 0.0622985 0.922068 0.741937 0.437126
233 13 1 0.0629322 0.932891 0.725448 0.438229
234 13 1 0.0629322 0.888197 0.693355 0.439219
227 13 1 0.0622985 0.800956 0.65496 0.439809
344 20 2 -0.0616365 0.496021 0.102462 0.46799
353 20 1 0.0622985 0.49478 0.199813 0.467888
354 20 1 0.0622985 0.508027 0.0940945 0.467518
343 20 2 -0.0616365 0.488586 0.161786 0.468198
345 20 2 -0.0543881 0.488049 0.0536617 0.468388
346 20 2 -0.018412 0.472528 0.0636119 0.469
347 20 2 -0.0543881 0.464338 0.0150344 0.469406
348 20 2 -0.0616365 0.448917 0.0257167 0.470013
349 20 2 -0.0616365 0.441482 0.0850357 0.47022
350 20 2 -0.0543881 0.449454 0.133836 0.469822
351 20 2 -0.018412 0.464974 0.123886 0.469211
352 20 2 -0.0543881 0.47316 0.172463 0.468804
355 20 1 0.0629322 0.494052 0.00763543 0.468217
358 20 1 0.0622985 0.429471 0.0934078 0.470692
359 20 1 0.0629322 0.443446 0.179862 0.469993
360 20 1 0.0629322 0.467548 0.219131 0.468958
356 20 1 0.0629322 0.46995 0.968371 0.469252
357 20 1 0.0622985 0.442719 0.987685 0.470322
685 39 2 -0.0616365 0.21457 0.805199 0.48391
686 39 2 -0.0616365 0.263061 0.844213 0.484025
695 39 1 0.0622985 0.221477 0.764471 0.483638
696 39 1 0.0622985 0.307896 0.833999 0.483844
702 39 1 0.0629322 0.119684 0.787354 0.484048
699 39 1 0.0622985 0.122276 0.016781 0.485467
687 39 2 -0.0543881 0.25412 0.896515 0.484373
688 39 2 -0.018412 0.196511 0.910444 0.484611
689 39 2 -0.0543881 0.186738 0.962869 0.484963
690 39 2 -0.0616365 0.129179 0.976048 0.485196
691 39 2 -0.0616365 0.0806882 0.937034 0.48508
692 39 2 -0.0543881 0.0896288 0.884737 0.484732
693 39 2 -0.018412 0.147242 0.870803 0.484494
694 39 2 -0.0543881 0.157011 0.818383 0.484143
697 39 1 0.0629322 0.292561 0.926447 0.484458
698 39 1 0.0629322 0.224065 0.993897 0.485057
700 39 1 0.0622985 0.0358533 0.947248 0.485262
701 39 1 0.0629322 0.0511879 0.8548 0.484647
1 1 2 -0.0616365 0.609579 0.46502 0.499951
2 1 2 -0.0616365 0.611603 0.528214 0.499981
8 1 2 -0.0543881 0.442309 0.438426 0.499987
9 1 2 -0.018412 0.498972 0.467899 0.499985
10 1 2 -0.0543881 0.553635 0.435024 0.499953
11 1 1 0.0622985 0.651526 0.439003 0.499927
12 1 1 0.0622985 0.655133 0.55162 0.49998
17 1 1 0.0629322 0.439813 0.389084 0.499964
18 1 1 0.0629322 0.552975 0.385623 0.49993
3 1 2 -0.0543881 0.557691 0.561575 0.500013
4 1 2 -0.018412 0.501028 0.532102 0.500015
5 1 2 -0.0543881 0.446366 0.564976 0.500047
6 1 2 -0.0616365 0.390421 0.53498 0.500049
7 1 2 -0.0616365 0.388397 0.471787 0.500019
13 1 1 0.0629322 0.560188 0.610916 0.500036
14 1 1 0.0629322 0.447025 0.614377 0.50007
15 1 1 0.0622985 0.348474 0.561002 0.500073
16 1 1 0.0622985 0.344868 0.44838 0.50002
883 50 2 -0.0616365 0.856778 0.420849 0.514531
884 50 2 -0.0616365 0.900076 0.466884 0.514566
885 50 2 -0.0543881 0.896797 0.510082 0.51503
886 50 2 -0.018412 0.85012 0.507763 0.515465
890 50 2 -0.0543881 0.75945 0.458667 0.515865
891 50 2 -0.018412 0.806127 0.460986 0.51543
892 50 2 -0.0543881 0.810088 0.417893 0.51496
893 50 1 0.0622985 0.859279 0.387192 0.51417
894 50 1 0.0622985 0.936448 0.469236 0.514232
895 50 1 0.0629322 0.931045 0.545713 0.51505
899 50 1 0.0629322 0.725207 0.423036 0.515845
900 50 1 0.0629322 0.776676 0.38159 0.514925
887 50 2 -0.0543881 0.846164 0.550861 0.515935
888 50 2 -0.0616365 0.799474 0.5479 0.516364
889 50 2 -0.0616365 0.756176 0.501865 0.516329
896 50 1 0.0629322 0.879575 0.58716 0.515969
897 50 1 0.0622985 0.796968 0.581557 0.516725
898 50 1 0.0622985 0.719804 0.499514 0.516663
415 24 2 -0.0616365 0.26196 0.201673 0.530853
416 24 2 -0.0616365 0.255525 0.167693 0.530323
417 24 2 -0.0543881 0.201395 0.136533 0.53021
418 24 2 -0.018412 0.152981 0.138988 0.530625
419 24 2 -0.0543881 0.0982237 0.107915 0.530518
420 24 2 -0.0616365 0.0505421 0.110825 0.530936
421 24 2 -0.0616365 0.056977 0.144805 0.531466
422 24 2 -0.0543881 0.111107 0.175965 0.53158
423 24 2 -0.018412 0.159516 0.173514 0.531164
424 24 2 -0.0543881 0.214279 0.204588 0.531271
425 24 1 0.0622985 0.30408 0.225952 0.530942
426 24 1 0.0622985 0.292616 0.165392 0.529997
427 24 1 0.0629322 0.197221 0.110225 0.529793
428 24 1 0.0629322 0.0923437 0.0811293 0.530107
429 24 1 0.0622985 0.00841762 0.0865455 0.530848
430 24 1 0.0622985 0.0198867 0.147106 0.531792
432 24 1 0.0629322 0.220154 0.231373 0.531683
431 24 1 0.0629322 0.115282 0.202278 0.531997
772 43 1 0.0622985 0.466794 0.666365 0.546503
757 43 2 -0.0616365 0.471268 0.928921 0.546883
758 43 2 -0.0616365 0.493834 0.942814 0.546308
759 43 2 -0.0543881 0.506053 0.896265 0.545894
760 43 2 -0.018412 0.495839 0.835181 0.54605
761 43 2 -0.0543881 0.507886 0.787804 0.545639
762 43 2 -0.0616365 0.497481 0.727326 0.545801
763 43 2 -0.0616365 0.474916 0.713437 0.546376
764 43 2 -0.0543881 0.462696 0.759987 0.54679
765 43 2 -0.018412 0.47291 0.82107 0.546634
766 43 2 -0.0543881 0.460863 0.868443 0.547045
767 43 1 0.0622985 0.461741 0.965129 0.547205
768 43 1 0.0622985 0.501956 0.989886 0.546181
769 43 1 0.0629322 0.523666 0.908011 0.545447
770 43 1 0.0629322 0.52553 0.797764 0.545188
771 43 1 0.0622985 0.507008 0.691122 0.545479
773 43 1 0.0629322 0.445083 0.748236 0.547237
774 43 1 0.0629322 0.443219 0.858488 0.547496
169 10 2 -0.0616365 0.0165763 0.142845 0.562023
170 10 2 -0.0543881 0.0177633 0.0874277 0.561714
178 10 1 0.0622985 0.057814 0.169799 0.562063
179 10 1 0.0629322 0.0603698 0.0720159 0.561516
165 10 2 -0.0543881 0.857233 0.0375723 0.561865
166 10 2 -0.018412 0.910081 0.0730118 0.56192
167 10 2 -0.0543881 0.909667 0.128866 0.56223
168 10 2 -0.0616365 0.962596 0.163536 0.562281
171 10 2 -0.018412 0.96492 0.0519882 0.561659
175 10 1 0.0629322 0.814631 0.0529842 0.562063
176 10 1 0.0629322 0.867929 0.145783 0.562434
177 10 1 0.0622985 0.961614 0.206675 0.562522
180 10 1 0.0629322 0.00707185 0.979217 0.561144
163 10 2 -0.0616365 0.912404 0.961464 0.561298
164 10 2 -0.0616365 0.858424 0.982155 0.561556
172 10 2 -0.0543881 0.965334 0.996135 0.561349
173 10 1 0.0622985 0.913387 0.918325 0.561057
174 10 1 0.0622985 0.817187 0.955202 0.561516
325 19 2 -0.0616365 0.275808 0.765867 0.591883
326 19 2 -0.0616365 0.242997 0.717562 0.592127
335 19 1 0.0622985 0.256044 0.793635 0.591525
336 19 1 0.0622985 0.197571 0.707544 0.59196
334 19 2 -0.0543881 0.334149 0.778677 0.592098
342 19 1 0.0629322 0.359083 0.816609 0.591901
337 19 1 0.0629322 0.24211 0.644387 0.592772
338 19 1 0.0629322 0.328419 0.620889 0.593467
329 19 2 -0.0543881 0.353349 0.658821 0.59327
339 19 1 0.0622985 0.431454 0.643864 0.593843
327 19 2 -0.0543881 0.268445 0.681936 0.592587
328 19 2 -0.018412 0.327082 0.69421 0.592808
330 19 2 -0.0616365 0.41169 0.671631 0.593485
331 19 2 -0.0616365 0.444501 0.719941 0.593241
332 19 2 -0.0543881 0.419057 0.755562 0.592781
333 19 2 -0.018412 0.360416 0.743293 0.59256
340 19 1 0.0622985 0.489927 0.729959 0.593408
341 19 1 0.0629322 0.445388 0.793112 0.592596
565 32 2 -0.0616365 0.112535 0.303316 0.607264
566 32 2 -0.0543881 0.079715 0.250018 0.60737
567 32 2 -0.018412 0.0467357 0.242192 0.607911
568 32 2 -0.0543881 0.0134791 0.188862 0.608025
574 32 1 0.0622985 0.137856 0.308755 0.606843
575 32 1 0.0629322 0.080047 0.214488 0.607026
576 32 1 0.0629322 0.0127197 0.152327 0.607692
563 32 2 -0.0543881 0.0802698 0.342385 0.608238
564 32 2 -0.0616365 0.112812 0.349438 0.607698
573 32 1 0.0622985 0.138347 0.390953 0.607616
561 32 2 -0.0543881 0.0140339 0.281233 0.608893
562 32 2 -0.018412 0.0470177 0.289055 0.608352
571 32 1 0.0629322 0.0137019 0.316759 0.609237
559 32 2 -0.0616365 0.980936 0.181813 0.608565
560 32 2 -0.0616365 0.981214 0.227935 0.608999
569 32 1 0.0622985 0.955402 0.140298 0.608647
570 32 1 0.0622985 0.955893 0.222496 0.60942
572 32 1 0.0629322 0.0810292 0.378925 0.608571
55 4 2 -0.0616365 0.276795 0.316277 0.623451
65 4 1 0.0622985 0.241637 0.281629 0.623427
62 4 2 -0.0543881 0.442105 0.328851 0.6238
64 4 2 -0.0543881 0.33615 0.300151 0.623609
71 4 1 0.0629322 0.454001 0.281888 0.623899
72 4 1 0.0629322 0.346296 0.25271 0.623705
56 4 2 -0.0616365 0.262688 0.376696 0.623326
57 4 2 -0.0543881 0.307896 0.421149 0.623358
66 4 1 0.0622985 0.216498 0.389302 0.623204
67 4 1 0.0629322 0.295999 0.468112 0.623259
58 4 2 -0.018412 0.367833 0.405692 0.623515
59 4 2 -0.0543881 0.41385 0.449849 0.623549
60 4 2 -0.0616365 0.473201 0.433723 0.623706
61 4 2 -0.0616365 0.487312 0.373304 0.623832
63 4 2 -0.018412 0.382167 0.344304 0.623642
68 4 1 0.0629322 0.403705 0.49729 0.623453
69 4 1 0.0622985 0.508363 0.468372 0.623731
70 4 1 0.0622985 0.533502 0.360693 0.623954
515 29 1 0.0622985 0.803539 0.648889 0.655407
517 29 1 0.0629322 0.659062 0.759159 0.654701
505 29 2 -0.0616365 0.788509 0.687589 0.655139
506 29 2 -0.0616365 0.726744 0.700263 0.655084
507 29 2 -0.0543881 0.707512 0.749987 0.654739
508 29 2 -0.018412 0.749873 0.787686 0.654446
509 29 2 -0.0543881 0.731291 0.837892 0.654097
510 29 2 -0.0616365 0.773989 0.874909 0.653808
511 29 2 -0.0616365 0.835754 0.86224 0.653863
512 29 2 -0.0543881 0.854986 0.812516 0.654208
513 29 2 -0.018412 0.81263 0.774812 0.654502
514 29 2 -0.0543881 0.831207 0.724611 0.65485
516 29 1 0.0622985 0.69346 0.671472 0.655309
518 29 1 0.0629322 0.683232 0.848515 0.654049
519 29 1 0.0622985 0.758964 0.913609 0.65354
520 29 1 0.0622985 0.869038 0.891031 0.653638
521 29 1 0.0629322 0.903441 0.803339 0.654246
522 29 1 0.0629322 0.879266 0.713983 0.654898
828 46 1 0.0629322 0.605063 0.159985 0.668735
821 46 1 0.0622985 0.716903 0.167288 0.668742
814 46 2 -0.018412 0.624746 0.213578 0.670183
815 46 2 -0.0543881 0.590852 0.230086 0.670699
816 46 2 -0.0616365 0.5275 0.226039 0.670697
817 46 2 -0.0616365 0.49724 0.205461 0.670181
818 46 2 -0.0543881 0.530251 0.188871 0.669665
819 46 2 -0.018412 0.594004 0.192673 0.669659
820 46 2 -0.0543881 0.627897 0.176165 0.669143
824 46 1 0.0629322 0.613686 0.246266 0.671107
825 46 1 0.0622985 0.501851 0.238963 0.671099
826 46 1 0.0622985 0.447921 0.202287 0.670179
827 46 1 0.0629322 0.505803 0.1729 0.669265
811 46 2 -0.0616365 0.69125 0.180213 0.669145
812 46 2 -0.0616365 0.721509 0.20079 0.669661
813 46 2 -0.0543881 0.688498 0.217376 0.670177
822 46 1 0.0622985 0.770828 0.20396 0.669663
823 46 1 0.0629322 0.712946 0.233351 0.670576
257 15 2 -0.0543881 0.104459 0.00273343 0.685036
258 15 2 -0.0616365 0.0570997 0.0433299 0.684918
266 15 1 0.0629322 0.15073 0.016017 0.684922
267 15 1 0.0622985 0.0668043 0.0873871 0.684716
259 15 2 -0.0616365 0.997503 0.0273678 0.685059
268 15 1 0.0622985 0.96059 0.0589373 0.684968
253 15 2 -0.0616365 0.0679003 0.831671 0.685818
254 15 2 -0.0616365 0.127497 0.847633 0.685677
255 15 2 -0.0543881 0.139893 0.904232 0.685418
256 15 2 -0.018412 0.0927757 0.945611 0.685297
261 15 2 -0.018412 0.0322243 0.92939 0.68544
262 15 2 -0.0543881 0.0205415 0.872267 0.685701
263 15 1 0.0622985 0.0581957 0.787613 0.68602
264 15 1 0.0622985 0.16441 0.816059 0.685769
265 15 1 0.0629322 0.186747 0.915892 0.685311
260 15 2 -0.0543881 0.985107 0.970764 0.685319
269 15 1 0.0629322 0.938253 0.959108 0.685426
270 15 1 0.0629322 0.97427 0.858984 0.685814
379 22 2 -0.0616365 0.703883 0.239495 0.715798
380 22 2 -0.0616365 0.713265 0.229772 0.716416
388 22 2 -0.0543881 0.704233 0.298569 0.715565
389 22 1 0.0622985 0.696279 0.201132 0.715496
396 22 1 0.0629322 0.696816 0.305258 0.715081
385 22 2 -0.0616365 0.724234 0.457726 0.71611
386 22 2 -0.0543881 0.714474 0.408407 0.715722
387 22 2 -0.018412 0.713983 0.348688 0.715949
394 22 1 0.0622985 0.724497 0.503697 0.715928
395 22 1 0.0629322 0.707225 0.416911 0.715241
381 22 2 -0.0543881 0.723028 0.279096 0.716804
390 22 1 0.0622985 0.713005 0.183805 0.716598
391 22 1 0.0629322 0.730273 0.270592 0.717285
382 22 2 -0.018412 0.72352 0.33881 0.716577
383 22 2 -0.0543881 0.73327 0.388934 0.716961