ITEM: TIMESTEP
0
ITEM: NUMBER OF ATOMS
900
ITEM: BOX BOUNDS pp pp pp
0.0000000000000000e+00 2.1989592999999999e+01
0.0000000000000000e+00 2.1989592999999999e+01
0.0000000000000000e+00 2.1989592920000000e+03
ITEM: ATOMS id mol type q xs ys zs
433 25 2 -0.0616365 0.564981 0.592508 0.0368729
434 25 2 -0.0616365 0.573107 0.583672 0.0362514
435 25 2 -0.0543881 0.620494 0.613095 0.0359484
436 25 2 -0.018412 0.660376 0.651763 0.0362635
441 25 2 -0.018412 0.652122 0.66074 0.036895
442 25 2 -0.0543881 0.604222 0.630794 0.0371929
443 25 1 0.0622985 0.528104 0.569624 0.0371093
444 25 1 0.0622985 0.542584 0.553876 0.0360018
445 25 1 0.0629322 0.626114 0.605627 0.0354627
450 25 1 0.0629322 0.597151 0.637133 0.0376783
437 25 2 -0.0543881 0.708276 0.681709 0.0359656
438 25 2 -0.0616365 0.747517 0.719991 0.0362856
439 25 2 -0.0616365 0.739391 0.728827 0.036907
440 25 2 -0.0543881 0.692005 0.699404 0.0372101
446 25 1 0.0629322 0.715347 0.675369 0.0354801
447 25 1 0.0622985 0.784394 0.742874 0.0360491
448 25 1 0.0622985 0.769914 0.758622 0.0371567
449 25 1 0.0629322 0.686384 0.706875 0.0376958
742 42 2 -0.018412 0.00807232 0.312398 0.0521765
751 42 1 0.0629322 0.10284 0.31589 0.0524454
752 42 1 0.0629322 0.0322247 0.229977 0.0526602
743 42 2 -0.0543881 0.996349 0.254866 0.0524279
744 42 2 -0.0616365 0.938685 0.228685 0.0523842
745 42 2 -0.0616365 0.892036 0.259646 0.052089
746 42 2 -0.0543881 0.902927 0.316868 0.0518367
753 42 1 0.0622985 0.930258 0.184128 0.0525808
754 42 1 0.0622985 0.847123 0.239309 0.0520547
739 42 2 -0.0616365 0.0300645 0.427566 0.051669
740 42 2 -0.0616365 0.0767139 0.396606 0.0519642
741 42 2 -0.0543881 0.0658224 0.339383 0.0522165
749 42 1 0.0622985 0.0384913 0.472119 0.0514724
750 42 1 0.0622985 0.121626 0.416943 0.0519985
747 42 2 -0.018412 0.960677 0.343854 0.0518766
748 42 2 -0.0543881 0.972401 0.401385 0.0516253
755 42 1 0.0629322 0.86591 0.340361 0.0516078
756 42 1 0.0629322 0.936529 0.426274 0.0513929
185 11 2 -0.0543881 0.455247 0.594136 0.066712
186 11 2 -0.0616365 0.477953 0.651417 0.0668647
193 11 1 0.0629322 0.409694 0.481341 0.0665478
194 11 1 0.0629322 0.452878 0.581275 0.0662351
195 11 1 0.0622985 0.492897 0.682314 0.0665091
181 11 2 -0.0616365 0.397047 0.473583 0.0680832
182 11 2 -0.0616365 0.393559 0.456084 0.067476
183 11 2 -0.0543881 0.412768 0.495821 0.0670197
184 11 2 -0.018412 0.435729 0.553612 0.0671655
188 11 2 -0.0543881 0.462228 0.629179 0.0679282
189 11 2 -0.018412 0.439271 0.571388 0.0677824
190 11 2 -0.0543881 0.419753 0.530865 0.0682359
191 11 1 0.0622985 0.382103 0.442682 0.0684388
192 11 1 0.0622985 0.375891 0.411499 0.0673565
197 11 1 0.0629322 0.465306 0.643659 0.0684001
198 11 1 0.0629322 0.422127 0.543725 0.0687128
187 11 2 -0.0616365 0.481441 0.668916 0.067472
196 11 1 0.0622985 0.499109 0.713501 0.0675913
307 18 2 -0.0616365 0.942805 0.181481 0.0979154
308 18 2 -0.0616365 0.897734 0.166183 0.0974982
309 18 2 -0.0543881 0.837132 0.180822 0.0976178
310 18 2 -0.018412 0.820852 0.210977 0.0981567
311 18 2 -0.0543881 0.760105 0.226039 0.098284
315 18 2 -0.018412 0.866646 0.226521 0.0985806
316 18 2 -0.0543881 0.927393 0.211464 0.0984533
317 18 1 0.0622985 0.99 0.170108 0.0978228
318 18 1 0.0622985 0.90968 0.142845 0.0970792
319 18 1 0.0629322 0.802557 0.168498 0.0972863
320 18 1 0.0629322 0.724261 0.214461 0.0979635
312 18 2 -0.0616365 0.744698 0.256017 0.0988219
313 18 2 -0.0616365 0.789765 0.271315 0.0992391
314 18 2 -0.0543881 0.850366 0.256676 0.0991196
321 18 1 0.0622985 0.697498 0.26739 0.0989145
322 18 1 0.0622985 0.777822 0.294658 0.0996581
323 18 1 0.0629322 0.884941 0.269005 0.099451
324 18 1 0.0629322 0.963242 0.223042 0.0987738
590 33 1 0.0629322 0.600343 0.651299 0.113845
591 33 1 0.0622985 0.61601 0.663505 0.112742
577 33 2 -0.0616365 0.499755 0.831757 0.114632
579 33 2 -0.0543881 0.54725 0.732856 0.114594
580 33 2 -0.018412 0.556645 0.73884 0.113965
581 33 2 -0.0543881 0.585009 0.692819 0.113625
582 33 2 -0.0616365 0.593995 0.699495 0.113
583 33 2 -0.0616365 0.574767 0.75221 0.112707
584 33 2 -0.0543881 0.546499 0.798396 0.113038
585 33 2 -0.018412 0.537104 0.792407 0.113667
586 33 2 -0.0543881 0.508745 0.838433 0.114007
592 33 1 0.0622985 0.581739 0.757458 0.112221
593 33 1 0.0629322 0.531788 0.839252 0.112802
594 33 1 0.0629322 0.493411 0.879953 0.113787
578 33 2 -0.0616365 0.518982 0.779037 0.114925
587 33 1 0.0622985 0.47774 0.867742 0.11489
588 33 1 0.0622985 0.51201 0.773789 0.115411
589 33 1 0.0629322 0.561961 0.691996 0.11483
73 5 2 -0.0616365 0.954934 0.940636 0.129769
74 5 2 -0.0616365 0.957844 0.884364 0.130057
75 5 2 -0.0543881 0.918876 0.837528 0.129879
76 5 2 -0.018412 0.876478 0.846414 0.12941
77 5 2 -0.0543881 0.83695 0.799778 0.129225
78 5 2 -0.0616365 0.795067 0.809365 0.128758
79 5 2 -0.0616365 0.792157 0.865637 0.128469
80 5 2 -0.0543881 0.831125 0.912473 0.128648
81 5 2 -0.018412 0.873522 0.903587 0.129117
82 5 2 -0.0543881 0.91305 0.950222 0.129302
83 5 1 0.0622985 0.985248 0.977135 0.129907
84 5 1 0.0622985 0.990432 0.876847 0.130421
85 5 1 0.0629322 0.921827 0.793876 0.13011
86 5 1 0.0629322 0.838547 0.755503 0.129445
87 5 1 0.0622985 0.764753 0.772866 0.128619
88 5 1 0.0622985 0.759568 0.873154 0.128106
89 5 1 0.0629322 0.828174 0.956125 0.128417
90 5 1 0.0629322 0.911454 0.994498 0.129082
490 28 2 -0.018412 0.302489 0.274221 0.160389
491 28 2 -0.0543881 0.31248 0.213119 0.160546
492 28 2 -0.0616365 0.281019 0.166501 0.160252
493 28 2 -0.0616365 0.239209 0.18034 0.159797
494 28 2 -0.0543881 0.228749 0.240832 0.159636
495 28 2 -0.018412 0.260009 0.288282 0.159927
501 28 1 0.0622985 0.289205 0.119416 0.160378
502 28 1 0.0622985 0.214692 0.144082 0.159567
503 28 1 0.0629322 0.195906 0.25075 0.159279
489 28 2 -0.0543881 0.333753 0.321666 0.160681
499 28 1 0.0629322 0.366592 0.311752 0.161037
500 28 1 0.0629322 0.344968 0.201413 0.1609
487 28 2 -0.0616365 0.281479 0.396001 0.160065
488 28 2 -0.0616365 0.323289 0.382163 0.160519
496 28 2 -0.0543881 0.250023 0.349379 0.15977
497 28 1 0.0622985 0.273297 0.443082 0.159939
504 28 1 0.0629322 0.217535 0.361089 0.159416
498 28 1 0.0622985 0.34781 0.418421 0.160749
845 47 1 0.0629322 0.106605 0.58535 0.175152
846 47 1 0.0629322 0.161881 0.662391 0.174532
829 47 2 -0.0616365 0.170372 0.756185 0.174786
838 47 2 -0.0543881 0.150535 0.696498 0.174872
839 47 1 0.0622985 0.196707 0.767891 0.174384
840 47 1 0.0622985 0.171845 0.847128 0.175148
834 47 2 -0.0616365 0.0483774 0.650067 0.176425
835 47 2 -0.0616365 0.0623295 0.605605 0.175997
836 47 2 -0.0543881 0.0961546 0.620712 0.175481
843 47 1 0.0622985 0.0220422 0.638361 0.176827
844 47 1 0.0622985 0.0469086 0.559124 0.176063
830 47 2 -0.0616365 0.156424 0.800642 0.175214
831 47 2 -0.0543881 0.122594 0.78554 0.17573
832 47 2 -0.018412 0.102289 0.725711 0.175823
833 47 2 -0.0543881 0.0682141 0.709749 0.176339
837 47 2 -0.018412 0.116464 0.68054 0.175388
841 47 1 0.0629322 0.112144 0.820902 0.176059
842 47 1 0.0629322 0.0568678 0.743861 0.176679
235 14 2 -0.0616365 0.519505 0.48432 0.190093
236 14 2 -0.0616365 0.470436 0.477103 0.190486
237 14 2 -0.0543881 0.479381 0.452023 0.191062
242 14 2 -0.0543881 0.645619 0.422977 0.191043
243 14 2 -0.018412 0.587428 0.441168 0.190853
244 14 2 -0.0543881 0.577641 0.466475 0.190275
245 14 1 0.0622985 0.512597 0.503843 0.189644
246 14 1 0.0622985 0.425151 0.490982 0.190345
252 14 1 0.0629322 0.615414 0.472474 0.189961
251 14 1 0.0629322 0.684515 0.428257 0.190742
238 14 2 -0.018412 0.537572 0.433832 0.191253
239 14 2 -0.0543881 0.547359 0.408525 0.191831
240 14 2 -0.0616365 0.605496 0.39068 0.192013
241 14 2 -0.0616365 0.654564 0.397893 0.191619
247 14 1 0.0629322 0.440486 0.446743 0.191363
248 14 1 0.0629322 0.509587 0.402527 0.192144
249 14 1 0.0622985 0.612403 0.371157 0.192461
250 14 1 0.0622985 0.699849 0.384018 0.191761
397 23 2 -0.0616365 0.182086 0.947794 0.221618
398 23 2 -0.0616365 0.161276 0.939972 0.222211
399 23 2 -0.0543881 0.174223 0.886319 0.222524
400 23 2 -0.018412 0.20818 0.839775 0.222249
401 23 2 -0.0543881 0.221605 0.785522 0.222558
402 23 2 -0.0616365 0.255412 0.739704 0.222277
403 23 2 -0.0616365 0.276222 0.747526 0.221684
404 23 2 -0.0543881 0.263279 0.801184 0.221371
405 23 2 -0.018412 0.229322 0.847724 0.221646
406 23 2 -0.0543881 0.215898 0.901981 0.221337
407 23 1 0.0622985 0.172036 0.98955 0.221374
408 23 1 0.0622985 0.13495 0.975612 0.22243
411 23 1 0.0622985 0.265466 0.697948 0.222522
412 23 1 0.0622985 0.302552 0.711887 0.221465
413 23 1 0.0629322 0.279928 0.806459 0.220908
414 23 1 0.0629322 0.231764 0.908921 0.220874
409 23 1 0.0629322 0.157575 0.881039 0.222987
410 23 1 0.0629322 0.205738 0.778577 0.223021
646 36 1 0.0622985 0.301956 0.207785 0.236509
647 36 1 0.0629322 0.310583 0.195802 0.23762
631 36 2 -0.0616365 0.455675 0.116073 0.238468
632 36 2 -0.0616365 0.501787 0.0951677 0.238088
633 36 2 -0.0543881 0.496667 0.102071 0.237459
634 36 2 -0.018412 0.445302 0.130002 0.237202
635 36 2 -0.0543881 0.439435 0.13731 0.23657
636 36 2 -0.0616365 0.388079 0.165178 0.236322
637 36 2 -0.0616365 0.341962 0.186083 0.236702
638 36 2 -0.0543881 0.347082 0.179176 0.237331
639 36 2 -0.018412 0.398448 0.151244 0.237588
640 36 2 -0.0543881 0.404314 0.143941 0.23822
642 36 1 0.0622985 0.541793 0.0734666 0.238281
643 36 1 0.0629322 0.533166 0.0854495 0.23717
644 36 1 0.0629322 0.474988 0.121271 0.236266
645 36 1 0.0622985 0.384141 0.170526 0.235832
648 36 1 0.0629322 0.368761 0.15998 0.238524
641 36 1 0.0622985 0.459608 0.110721 0.238957
43 3 2 -0.0616365 0.197675 0.661049 0.253353
44 3 2 -0.0543881 0.242992 0.666188 0.252911
52 3 1 0.0622985 0.182559 0.616369 0.2535
53 3 1 0.0629322 0.262588 0.624977 0.25272
37 3 2 -0.0616365 0.328101 0.786877 0.252081
38 3 2 -0.0616365 0.302325 0.838951 0.252332
39 3 2 -0.0543881 0.257008 0.833813 0.252773
40 3 2 -0.018412 0.236903 0.776458 0.25297
41 3 2 -0.0543881 0.191363 0.770483 0.253414
42 3 2 -0.0616365 0.171895 0.713124 0.253604
45 3 2 -0.018412 0.263097 0.723542 0.252715
46 3 2 -0.0543881 0.308637 0.729518 0.252271
48 3 1 0.0622985 0.317446 0.883632 0.252184
49 3 1 0.0629322 0.237412 0.875023 0.252964
50 3 1 0.0629322 0.170681 0.810643 0.253615
51 3 1 0.0622985 0.136615 0.709176 0.253947
54 3 1 0.0629322 0.329319 0.689358 0.25207
47 3 1 0.0622985 0.363386 0.790824 0.251737
850 48 2 -0.018412 0.0512333 0.216948 0.268316
851 48 2 -0.0543881 0.0513288 0.156206 0.268119
852 48 2 -0.0616365 0.103735 0.130166 0.267873
853 48 2 -0.0616365 0.156674 0.164473 0.267821
854 48 2 -0.0543881 0.157347 0.224906 0.268015
855 48 2 -0.018412 0.105018 0.251801 0.268263
856 48 2 -0.0543881 0.104922 0.312543 0.268461
860 48 1 0.0629322 0.0104049 0.128684 0.268155
861 48 1 0.0622985 0.103158 0.0831075 0.267722
862 48 1 0.0622985 0.197503 0.144246 0.267629
863 48 1 0.0629322 0.199135 0.250987 0.267971
848 48 2 -0.0616365 0.999577 0.30428 0.268758
849 48 2 -0.0543881 0.998904 0.243843 0.268564
858 48 1 0.0622985 0.958749 0.324504 0.26895
859 48 1 0.0629322 0.957112 0.217762 0.268609
847 48 2 -0.0616365 0.0525158 0.338583 0.268707
857 48 1 0.0622985 0.0530933 0.385642 0.268858
864 48 1 0.0629322 0.145846 0.340065 0.268424
464 26 1 0.0629322 0.0277271 0.413064 0.2834
455 26 2 -0.0543881 0.980787 0.428603 0.283411
456 26 2 -0.0616365 0.965307 0.481646 0.283098
457 26 2 -0.0616365 0.905533 0.502451 0.283105
458 26 2 -0.0543881 0.86108 0.470268 0.283424
465 26 1 0.0622985 0.999955 0.506667 0.28285
466 26 1 0.0622985 0.893427 0.543744 0.282861
467 26 1 0.0629322 0.814622 0.48723 0.283423
451 26 2 -0.0616365 0.847192 0.330852 0.284376
452 26 2 -0.0616365 0.90697 0.310047 0.284369
461 26 1 0.0622985 0.812543 0.305831 0.284624
462 26 1 0.0622985 0.919071 0.268754 0.284612
463 26 1 0.0629322 0.997881 0.325268 0.284051
453 26 2 -0.0543881 0.951423 0.342235 0.28405
454 26 2 -0.018412 0.936616 0.395683 0.283734
459 26 2 -0.018412 0.875883 0.41682 0.28374
460 26 2 -0.0543881 0.831716 0.383895 0.284063
468 26 1 0.0629322 0.784771 0.399439 0.284074
726 41 2 -0.0616365 0.653641 0.579706 0.298364
727 41 2 -0.0616365 0.624514 0.560179 0.298891
735 41 1 0.0622985 0.628206 0.584181 0.297942
736 41 1 0.0622985 0.576291 0.549383 0.298881
723 41 2 -0.0543881 0.811511 0.601798 0.298937
724 41 2 -0.018412 0.749173 0.588046 0.298917
725 41 2 -0.0543881 0.715579 0.593563 0.298376
733 41 1 0.0629322 0.835059 0.617119 0.29853
734 41 1 0.0629322 0.737544 0.608752 0.29796
728 41 2 -0.0543881 0.657243 0.554453 0.299431
737 41 1 0.0629322 0.633691 0.539128 0.299839
721 41 2 -0.0616365 0.815108 0.576541 0.300005
722 41 2 -0.0616365 0.84424 0.596073 0.299478
729 41 2 -0.018412 0.719577 0.568205 0.299452
730 41 2 -0.0543881 0.75317 0.562689 0.299992
731 41 1 0.0622985 0.840543 0.572066 0.300426
732 41 1 0.0622985 0.892459 0.606869 0.299487
738 41 1 0.0629322 0.731205 0.5475 0.300409
128 8 2 -0.0616365 0.111676 0.246885 0.315197
129 8 2 -0.0543881 0.112703 0.273448 0.314621
130 8 2 -0.018412 0.162672 0.308414 0.314431
135 8 2 -0.018412 0.212323 0.316586 0.314832
139 8 1 0.0629322 0.0740987 0.266653 0.314319
140 8 1 0.0629322 0.126683 0.329679 0.313539
131 8 2 -0.0543881 0.164432 0.33545 0.313853
132 8 2 -0.0616365 0.214456 0.370075 0.313672
133 8 2 -0.0616365 0.263325 0.378115 0.314066
134 8 2 -0.0543881 0.262297 0.351553 0.314642
141 8 1 0.0622985 0.215202 0.390735 0.313223
142 8 1 0.0622985 0.302293 0.405064 0.313925
143 8 1 0.0629322 0.300901 0.358347 0.314944
127 8 2 -0.0616365 0.160544 0.254925 0.315592
136 8 2 -0.0543881 0.210568 0.289551 0.31541
137 8 1 0.0622985 0.159798 0.234265 0.31604
138 8 1 0.0622985 0.0727071 0.219936 0.315338
144 8 1 0.0629322 0.248317 0.295317 0.315725
296 17 2 -0.0543881 0.552029 0.0226883 0.346024
298 17 2 -0.0543881 0.647797 0.0332524 0.345464
304 17 1 0.0622985 0.46733 0.00689904 0.346491
305 17 1 0.0629322 0.556045 0.0688056 0.346198
306 17 1 0.0629322 0.653395 0.0795425 0.345629
289 17 2 -0.0616365 0.691968 0.00881358 0.345079
299 17 1 0.0622985 0.731141 0.0359992 0.344949
291 17 2 -0.0543881 0.635473 0.91481 0.345029
292 17 2 -0.018412 0.590625 0.938703 0.345416
293 17 2 -0.0543881 0.539701 0.90425 0.345589
294 17 2 -0.0616365 0.495534 0.928685 0.345974
295 17 2 -0.0616365 0.501687 0.987826 0.346191
297 17 2 -0.018412 0.596878 0.998795 0.345637
301 17 1 0.0629322 0.631453 0.868693 0.344855
302 17 1 0.0629322 0.534103 0.857956 0.345424
303 17 1 0.0622985 0.456361 0.901499 0.346104
290 17 2 -0.0616365 0.685811 0.949672 0.344862
300 17 1 0.0622985 0.720172 0.930599 0.344562
609 34 1 0.0622985 0.664669 0.0922709 0.361555
598 34 2 -0.018412 0.789364 0.00423837 0.361265
599 34 2 -0.0543881 0.738859 0.0282588 0.361573
600 34 2 -0.0616365 0.703628 0.0741078 0.361311
601 34 2 -0.0616365 0.718413 0.0965184 0.360738
602 34 2 -0.0543881 0.768468 0.0731391 0.360425
603 34 2 -0.018412 0.804385 0.0270128 0.360683
604 34 2 -0.0543881 0.854891 0.00299232 0.360374
608 34 1 0.0629322 0.726594 0.0113281 0.362022
610 34 1 0.0622985 0.691018 0.132213 0.360534
611 34 1 0.0629322 0.779305 0.0912295 0.359978
612 34 1 0.0629322 0.867156 0.0199231 0.359926
595 34 2 -0.0616365 0.890121 0.957143 0.360636
596 34 2 -0.0616365 0.875337 0.934733 0.361209
597 34 2 -0.0543881 0.825286 0.958107 0.361522
605 34 1 0.0622985 0.92908 0.93898 0.360392
606 34 1 0.0622985 0.902732 0.899039 0.361414
607 34 1 0.0629322 0.814449 0.940022 0.361969
92 6 2 -0.0616365 0.58499 0.203005 0.375675
102 6 1 0.0622985 0.57962 0.238436 0.375334
103 6 1 0.0629322 0.682418 0.20567 0.375638
91 6 2 -0.0616365 0.533975 0.176311 0.375938
93 6 2 -0.0543881 0.643104 0.184278 0.375848
94 6 2 -0.018412 0.650917 0.138561 0.376288
97 6 2 -0.0616365 0.66501 0.046995 0.377167
98 6 2 -0.0543881 0.606896 0.065722 0.376994
99 6 2 -0.018412 0.599083 0.111439 0.376555
100 6 2 -0.0543881 0.540942 0.130812 0.376375
101 6 1 0.0622985 0.488704 0.190858 0.375803
107 6 1 0.0629322 0.567582 0.0443255 0.377204
108 6 1 0.0629322 0.500541 0.110489 0.376575
95 6 2 -0.0543881 0.709058 0.119188 0.376467
96 6 2 -0.0616365 0.716025 0.0736894 0.376905
104 6 1 0.0629322 0.749459 0.139507 0.376267
105 6 1 0.0622985 0.761296 0.0591462 0.377039
106 6 1 0.0622985 0.670381 0.0115646 0.377508
541 31 2 -0.0616365 0.112767 0.610566 0.407137
542 31 2 -0.0616365 0.133363 0.574981 0.407618
544 31 2 -0.018412 0.0417106 0.51317 0.40756
549 31 2 -0.018412 0.0207871 0.549328 0.407071
550 31 2 -0.0543881 0.0568405 0.597846 0.406865
551 31 1 0.0622985 0.140194 0.648257 0.406973
558 31 1 0.0629322 0.0415105 0.62616 0.40649
546 31 2 -0.0616365 0.949735 0.451932 0.407494
547 31 2 -0.0616365 0.929139 0.487522 0.407013
548 31 2 -0.0543881 0.964415 0.535917 0.406803
556 31 1 0.0622985 0.885605 0.477662 0.406801
557 31 1 0.0629322 0.947566 0.563207 0.406426
543 31 2 -0.0543881 0.0980828 0.526581 0.407829
545 31 2 -0.0543881 0.00566177 0.464652 0.407766
552 31 1 0.0622985 0.176897 0.58484 0.407831
553 31 1 0.0629322 0.114936 0.499291 0.408205
554 31 1 0.0629322 0.0209872 0.436338 0.408142
555 31 1 0.0622985 0.922309 0.414241 0.407659
779 44 2 -0.0543881 0.302298 0.392167 0.422885
780 44 2 -0.0616365 0.24889 0.421308 0.422703
781 44 2 -0.0616365 0.25085 0.481259 0.422501
782 44 2 -0.0543881 0.306222 0.512229 0.42248
788 44 1 0.0629322 0.299855 0.345313 0.423041
789 44 1 0.0622985 0.205806 0.397152 0.42272
790 44 1 0.0622985 0.209299 0.503993 0.42236
791 44 1 0.0629322 0.306845 0.559051 0.422321
775 44 2 -0.0616365 0.469859 0.484943 0.422823
776 44 2 -0.0616365 0.467899 0.424992 0.423025
777 44 2 -0.0543881 0.412527 0.394023 0.423046
778 44 2 -0.018412 0.358379 0.422668 0.422866
783 44 2 -0.018412 0.36037 0.483583 0.422661
784 44 2 -0.0543881 0.416452 0.514084 0.422642
785 44 1 0.0622985 0.512943 0.5091 0.422806
786 44 1 0.0622985 0.50945 0.402258 0.423166
787 44 1 0.0629322 0.411908 0.347201 0.423206
792 44 1 0.0629322 0.418894 0.560934 0.422485
217 13 2 -0.0616365 0.915156 0.643127 0.438484
218 13 2 -0.0616365 0.915283 0.649776 0.437855
226 13 2 -0.0543881 0.864072 0.660185 0.43882
227 13 1 0.0622985 0.954802 0.624668 0.438714
228 13 1 0.0622985 0.955029 0.63651 0.437592
234 13 1 0.0629322 0.864827 0.654655 0.439311
219 13 2 -0.0543881 0.864327 0.673491 0.43756
220 13 2 -0.018412 0.812566 0.690877 0.437891
221 13 2 -0.0543881 0.760924 0.714815 0.437601
222 13 2 -0.0616365 0.709845 0.731869 0.437937
223 13 2 -0.0616365 0.709718 0.725225 0.438567
224 13 2 -0.0543881 0.760673 0.701509 0.438862
225 13 2 -0.018412 0.812434 0.684124 0.43853
229 13 1 0.0629322 0.865277 0.678344 0.437067
230 13 1 0.0629322 0.760173 0.720345 0.43711
231 13 1 0.0622985 0.670199 0.750332 0.437707
232 13 1 0.0622985 0.669971 0.73849 0.438829
233 13 1 0.0629322 0.759723 0.696657 0.439354
348 20 2 -0.0616365 0.482465 0.0430749 0.468081
349 20 2 -0.0616365 0.474975 0.104777 0.467961
357 20 1 0.0622985 0.48925 0.0112872 0.467708
358 20 1 0.0622985 0.475898 0.121248 0.467495
343 20 2 -0.0616365 0.455033 0.144423 0.47013
344 20 2 -0.0616365 0.462528 0.0827255 0.47025
345 20 2 -0.0543881 0.471232 0.0419471 0.469771
346 20 2 -0.018412 0.472555 0.0624068 0.469166
347 20 2 -0.0543881 0.481269 0.0219922 0.468679
350 20 2 -0.0543881 0.466266 0.145555 0.46844
351 20 2 -0.018412 0.464943 0.125096 0.469044
352 20 2 -0.0543881 0.456229 0.16551 0.469531
353 20 1 0.0622985 0.448248 0.176215 0.470502
354 20 1 0.0622985 0.461605 0.0662541 0.470715
359 20 1 0.0629322 0.460495 0.193592 0.468337
360 20 1 0.0629322 0.450295 0.213878 0.469447
355 20 1 0.0629322 0.477003 0.993906 0.469873
356 20 1 0.0629322 0.487208 0.973624 0.468764
702 39 1 0.0629322 0.164541 0.00585763 0.484042
685 39 2 -0.0616365 0.100384 0.937239 0.48378
686 39 2 -0.0616365 0.0812293 0.877383 0.483855
695 39 1 0.0622985 0.0765453 0.967094 0.483466
696 39 1 0.0622985 0.042411 0.860425 0.483601
687 39 2 -0.0543881 0.111894 0.839088 0.484258
688 39 2 -0.018412 0.162145 0.860216 0.484591
689 39 2 -0.0543881 0.193501 0.822294 0.484998
690 39 2 -0.0616365 0.243365 0.844013 0.485325
691 39 2 -0.0616365 0.26252 0.903868 0.48525
692 39 2 -0.0543881 0.231855 0.942159 0.484847
693 39 2 -0.018412 0.181604 0.921031 0.484514
694 39 2 -0.0543881 0.150253 0.958954 0.484107
697 39 1 0.0629322 0.0962546 0.792466 0.484311
698 39 1 0.0629322 0.179208 0.775394 0.485063
699 39 1 0.0622985 0.267204 0.814158 0.485639
700 39 1 0.0622985 0.301338 0.920827 0.485505
701 39 1 0.0629322 0.247494 0.988781 0.484794
1 1 2 -0.0616365 0.609579 0.46502 0.499951
2 1 2 -0.0616365 0.611603 0.528214 0.499981
8 1 2 -0.0543881 0.442309 0.438426 0.499987
9 1 2 -0.018412 0.498972 0.467899 0.499985
10 1 2 -0.0543881 0.553635 0.435024 0.499953
11 1 1 0.0622985 0.651526 0.439003 0.499927
12 1 1 0.0622985 0.655133 0.55162 0.49998
17 1 1 0.0629322 0.439813 0.389084 0.499964
18 1 1 0.0629322 0.552975 0.385623 0.49993
3 1 2 -0.0543881 0.557691 0.561575 0.500013
4 1 2 -0.018412 0.501028 0.532102 0.500015
5 1 2 -0.0543881 0.446366 0.564976 0.500047
6 1 2 -0.0616365 0.390421 0.53498 0.500049
7 1 2 -0.0616365 0.388397 0.471787 0.500019
13 1 1 0.0629322 0.560188 0.610916 0.500036
14 1 1 0.0629322 0.447025 0.614377 0.50007
15 1 1 0.0622985 0.348474 0.561002 0.500073
16 1 1 0.0622985 0.344868 0.44838 0.50002
883 50 2 -0.0616365 0.77729 0.587351 0.515366
884 50 2 -0.0616365 0.811666 0.589074 0.515897
886 50 2 -0.018412 0.845591 0.485248 0.515717
887 50 2 -0.0543881 0.879484 0.433832 0.515887
888 50 2 -0.0616365 0.878961 0.381399 0.515529
889 50 2 -0.0616365 0.844581 0.379675 0.514998
890 50 2 -0.0543881 0.810638 0.43039 0.514823
891 50 2 -0.018412 0.810661 0.483501 0.515178
892 50 2 -0.0543881 0.776767 0.534917 0.515008
893 50 1 0.0622985 0.750842 0.626806 0.515229
897 50 1 0.0622985 0.905406 0.341944 0.515665
898 50 1 0.0622985 0.84414 0.338878 0.514719
899 50 1 0.0629322 0.784062 0.428184 0.514406
900 50 1 0.0629322 0.749632 0.534435 0.514595
885 50 2 -0.0543881 0.845614 0.538359 0.516072
894 50 1 0.0622985 0.812111 0.629875 0.516176
895 50 1 0.0629322 0.87219 0.540565 0.516488
896 50 1 0.0629322 0.90662 0.434315 0.5163
415 24 2 -0.0616365 0.231459 0.0919571 0.531483
416 24 2 -0.0616365 0.196416 0.0513516 0.531147
417 24 2 -0.0543881 0.150194 0.0730118 0.53077
418 24 2 -0.018412 0.138447 0.135623 0.530724
419 24 2 -0.0543881 0.0921254 0.158166 0.530347
420 24 2 -0.0616365 0.0810383 0.220541 0.530306
421 24 2 -0.0616365 0.116082 0.261146 0.530642
422 24 2 -0.0543881 0.162304 0.239486 0.53102
423 24 2 -0.018412 0.174051 0.176879 0.531065
424 24 2 -0.0543881 0.220377 0.154332 0.531443
425 24 1 0.0622985 0.267458 0.0751492 0.531777
426 24 1 0.0622985 0.205006 0.00278313 0.531178
427 24 1 0.0629322 0.123295 0.0405828 0.530511
428 24 1 0.0629322 0.0642668 0.127147 0.53008
429 24 1 0.0622985 0.045044 0.237353 0.530012
430 24 1 0.0622985 0.107496 0.309719 0.530611
431 24 1 0.0629322 0.189203 0.271915 0.531279
432 24 1 0.0629322 0.248231 0.185356 0.531709
757 43 2 -0.0616365 0.559628 0.794185 0.54554
758 43 2 -0.0616365 0.511556 0.820829 0.545226
759 43 2 -0.0543881 0.462019 0.844431 0.545545
760 43 2 -0.018412 0.459954 0.841662 0.546183
761 43 2 -0.0543881 0.410462 0.865187 0.546511
762 43 2 -0.0616365 0.409121 0.862067 0.547145
763 43 2 -0.0616365 0.457194 0.835418 0.547458
764 43 2 -0.0543881 0.506731 0.81182 0.547139
765 43 2 -0.018412 0.508795 0.81459 0.546502
766 43 2 -0.0543881 0.558287 0.791065 0.546174
767 43 1 0.0622985 0.598219 0.775794 0.545292
768 43 1 0.0622985 0.512552 0.823285 0.544732
769 43 1 0.0629322 0.424887 0.865077 0.545292
770 43 1 0.0629322 0.372481 0.886174 0.546273
771 43 1 0.0622985 0.37053 0.880457 0.547393
773 43 1 0.0629322 0.543862 0.791174 0.547392
774 43 1 0.0629322 0.596268 0.770073 0.546411
772 43 1 0.0622985 0.456202 0.832967 0.547952
163 10 2 -0.0616365 0.0416655 0.080197 0.561332
164 10 2 -0.0616365 0.0196778 0.0272356 0.561064
172 10 2 -0.0543881 0.00641244 0.111112 0.56176
173 10 1 0.0622985 0.0862729 0.0975143 0.561208
174 10 1 0.0622985 0.0470817 0.00312421 0.560731
180 10 1 0.0629322 0.0243664 0.152418 0.561964
165 10 2 -0.0543881 0.962378 0.00504329 0.561224
166 10 2 -0.018412 0.926329 0.0355941 0.561653
167 10 2 -0.0543881 0.868584 0.0138884 0.561819
168 10 2 -0.0616365 0.833335 0.044803 0.562247
169 10 2 -0.0616365 0.855323 0.0977644 0.562515
170 10 2 -0.0543881 0.912623 0.119957 0.562355
171 10 2 -0.018412 0.948671 0.0894059 0.561926
177 10 1 0.0622985 0.788728 0.0274857 0.56237
178 10 1 0.0622985 0.827919 0.121876 0.562848
179 10 1 0.0629322 0.92903 0.161408 0.562569
175 10 1 0.0629322 0.94597 0.963592 0.561009
176 10 1 0.0629322 0.85063 0.972582 0.561614
332 19 2 -0.0543881 0.308237 0.755494 0.592013
341 19 1 0.0629322 0.264348 0.75845 0.591787
330 19 2 -0.0616365 0.414164 0.784103 0.59205
331 19 2 -0.0616365 0.357537 0.787177 0.591769
339 19 1 0.0622985 0.452578 0.808751 0.59186
340 19 1 0.0622985 0.351662 0.814226 0.591359
325 19 2 -0.0616365 0.273338 0.653395 0.593319
326 19 2 -0.0616365 0.329961 0.650326 0.5936
335 19 1 0.0622985 0.23492 0.628747 0.593508
336 19 1 0.0622985 0.335841 0.623277 0.594009
333 19 2 -0.018412 0.314981 0.720309 0.592541
334 19 2 -0.0543881 0.265858 0.688157 0.592793
342 19 1 0.0629322 0.221268 0.690004 0.59258
327 19 2 -0.0543881 0.379261 0.682009 0.593356
328 19 2 -0.018412 0.372517 0.717189 0.592827
329 19 2 -0.0543881 0.42164 0.749341 0.592576
337 19 1 0.0629322 0.423155 0.679053 0.593582
338 19 1 0.0629322 0.46623 0.747499 0.592789
561 32 2 -0.0543881 0.120734 0.236662 0.607844
562 32 2 -0.018412 0.0588324 0.252242 0.607865
563 32 2 -0.0543881 0.0201459 0.241823 0.607367
571 32 1 0.0629322 0.139948 0.216034 0.607438
572 32 1 0.0629322 0.0376997 0.221286 0.606953
564 32 2 -0.0616365 0.958717 0.257581 0.607395
565 32 2 -0.0616365 0.935183 0.28393 0.607921
573 32 1 0.0622985 0.929307 0.249259 0.607007
574 32 1 0.0622985 0.887365 0.296217 0.607943
559 32 2 -0.0616365 0.135032 0.273666 0.608868
560 32 2 -0.0616365 0.158566 0.247322 0.608342
567 32 2 -0.018412 0.0349211 0.279009 0.608398
568 32 2 -0.0543881 0.073603 0.289423 0.608896
569 32 1 0.0622985 0.164446 0.281988 0.609256
570 32 1 0.0622985 0.206384 0.235034 0.60832
576 32 1 0.0629322 0.0560492 0.309965 0.60931
566 32 2 -0.0543881 0.973015 0.294589 0.608419
575 32 1 0.0629322 0.953801 0.315217 0.608825
55 4 2 -0.0616365 0.313435 0.31222 0.622836
56 4 2 -0.0616365 0.278586 0.315904 0.623363
65 4 1 0.0622985 0.296536 0.287227 0.622444
66 4 1 0.0622985 0.234434 0.293794 0.623384
57 4 2 -0.0543881 0.300351 0.348015 0.623865
58 4 2 -0.018412 0.357296 0.376869 0.623847
61 4 2 -0.0616365 0.471414 0.434096 0.623795
62 4 2 -0.0543881 0.449649 0.401981 0.623292
63 4 2 -0.018412 0.392704 0.373127 0.623311
64 4 2 -0.0543881 0.370139 0.340638 0.62281
70 4 1 0.0622985 0.515567 0.456207 0.623774
71 4 1 0.0629322 0.47753 0.399612 0.622885
72 4 1 0.0629322 0.396706 0.337255 0.622394
67 4 1 0.0629322 0.27247 0.350388 0.624273
59 4 2 -0.0543881 0.379862 0.409362 0.624348
60 4 2 -0.0616365 0.436566 0.43778 0.624322
68 4 1 0.0629322 0.353294 0.412745 0.624764
69 4 1 0.0622985 0.45346 0.462773 0.624714
516 29 1 0.0622985 0.828901 0.625305 0.654353
518 29 1 0.0629322 0.660685 0.757126 0.65476
519 29 1 0.0622985 0.646679 0.868261 0.654798
505 29 2 -0.0616365 0.871353 0.712974 0.654256
506 29 2 -0.0616365 0.82258 0.674292 0.65437
507 29 2 -0.0543881 0.765489 0.698417 0.654507
508 29 2 -0.018412 0.756471 0.761601 0.654532
509 29 2 -0.0543881 0.699335 0.786618 0.654669
510 29 2 -0.0616365 0.69115 0.849529 0.654691
511 29 2 -0.0616365 0.739923 0.888207 0.654577
512 29 2 -0.0543881 0.797013 0.864081 0.65444
513 29 2 -0.018412 0.806027 0.800902 0.654415
514 29 2 -0.0543881 0.863163 0.775881 0.654278
515 29 1 0.0622985 0.915824 0.694237 0.654149
517 29 1 0.0629322 0.727931 0.66747 0.654596
520 29 1 0.0622985 0.733602 0.937193 0.654594
521 29 1 0.0629322 0.834572 0.895028 0.654352
522 29 1 0.0629322 0.901813 0.805372 0.654187
823 46 1 0.0629322 0.611094 0.255489 0.668772
813 46 2 -0.0543881 0.627106 0.2491 0.669236
814 46 2 -0.018412 0.598542 0.206861 0.669621
815 46 2 -0.0543881 0.548946 0.171881 0.669422
816 46 2 -0.0616365 0.521069 0.130093 0.66981
817 46 2 -0.0616365 0.542393 0.122735 0.670401
818 46 2 -0.0543881 0.591644 0.157147 0.670606
819 46 2 -0.018412 0.620207 0.199385 0.670221
824 46 1 0.0629322 0.531642 0.176997 0.668961
825 46 1 0.0622985 0.482724 0.103326 0.66965
826 46 1 0.0622985 0.520724 0.0902154 0.670704
827 46 1 0.0629322 0.60766 0.150762 0.67107
811 46 2 -0.0616365 0.69768 0.276153 0.670032
812 46 2 -0.0616365 0.676356 0.283511 0.669441
820 46 2 -0.0543881 0.669803 0.234365 0.67042
821 46 1 0.0622985 0.736025 0.302921 0.670192
822 46 1 0.0622985 0.698026 0.316036 0.669138
828 46 1 0.0629322 0.687107 0.229254 0.670881
259 15 2 -0.0616365 0.0980873 0.879657 0.684439
260 15 2 -0.0543881 0.0686507 0.935201 0.684527
268 15 1 0.0622985 0.108738 0.864382 0.683981
269 15 1 0.0629322 0.0567541 0.962514 0.684132
253 15 2 -0.0616365 0.0112235 0.0311105 0.6858
262 15 2 -0.0543881 0.02493 0.0114285 0.685212
264 15 1 0.0622985 0.0162622 0.010619 0.686756
270 15 1 0.0629322 0.0123104 0.0400011 0.684829
263 15 1 0.0622985 0.988304 0.0743628 0.685868
254 15 2 -0.0616365 0.0269127 0.995344 0.686298
255 15 2 -0.0543881 0.0563494 0.939799 0.68621
256 15 2 -0.018412 0.0704697 0.91933 0.685621
257 15 2 -0.0543881 0.10007 0.863572 0.685524
258 15 2 -0.0616365 0.113777 0.84389 0.684937
261 15 2 -0.018412 0.0545303 0.95567 0.685115
265 15 1 0.0629322 0.0682459 0.912486 0.686604
266 15 1 0.0629322 0.11269 0.835 0.685908
267 15 1 0.0622985 0.136696 0.800638 0.684868
385 22 2 -0.0616365 0.821066 0.293025 0.716409
387 22 2 -0.018412 0.714556 0.321925 0.716495
394 22 1 0.0622985 0.85897 0.264921 0.716556
380 22 2 -0.0616365 0.616437 0.394473 0.716117
390 22 1 0.0622985 0.578528 0.422577 0.71597
381 22 2 -0.0543881 0.673441 0.40149 0.715847
382 22 2 -0.018412 0.722942 0.365577 0.716031
383 22 2 -0.0543881 0.780592 0.372053 0.715764
384 22 2 -0.0616365 0.82932 0.335991 0.715952
391 22 1 0.0629322 0.679008 0.435301 0.71549
392 22 1 0.0629322 0.787923 0.405378 0.715405
393 22 1 0.0622985 0.873681 0.341493 0.715741
388 22 2 -0.0543881 0.656911 0.315445 0.716763
396 22 1 0.0629322 0.649575 0.28212 0.717121
386 22 2 -0.0543881 0.764057 0.286008 0.716679