ITEM: TIMESTEP
0
ITEM: NUMBER OF ATOMS
900
ITEM: BOX BOUNDS pp pp pp
0.0000000000000000e+00 2.1989592999999999e+01
0.0000000000000000e+00 2.1989592999999999e+01
0.0000000000000000e+00 2.1989592920000000e+03
ITEM: ATOMS id mol type q xs ys zs
435 25 2 -0.0543881 0.582013 0.632386 0.0368012
436 25 2 -0.018412 0.637391 0.63214 0.0365387
437 25 2 -0.0543881 0.655894 0.58475 0.036197
445 25 1 0.0629322 0.551289 0.594085 0.0367405
446 25 1 0.0629322 0.626187 0.545793 0.0361279
438 25 2 -0.0616365 0.71116 0.585019 0.0359378
439 25 2 -0.0616365 0.748416 0.632649 0.0360178
447 25 1 0.0622985 0.725738 0.5466 0.0356627
448 25 1 0.0622985 0.793171 0.632811 0.0358076
433 25 2 -0.0616365 0.601339 0.727481 0.0372207
434 25 2 -0.0616365 0.564084 0.67985 0.0371407
442 25 2 -0.0543881 0.656606 0.72775 0.0369615
443 25 1 0.0622985 0.586761 0.765899 0.0374957
444 25 1 0.0622985 0.519328 0.679689 0.0373509
440 25 2 -0.0543881 0.730487 0.680114 0.0363572
441 25 2 -0.018412 0.675108 0.68036 0.0366197
449 25 1 0.0629322 0.76121 0.718415 0.036418
450 25 1 0.0629322 0.686313 0.766707 0.0370305
747 42 2 -0.018412 0.00664849 0.307804 0.0520932
748 42 2 -0.0543881 0.0580704 0.327187 0.0523645
755 42 1 0.0629322 0.0340572 0.215588 0.0520559
756 42 1 0.0629322 0.0941648 0.29517 0.052474
743 42 2 -0.0543881 0.91068 0.329062 0.0516887
744 42 2 -0.0616365 0.903358 0.27006 0.0515503
745 42 2 -0.0616365 0.947359 0.229915 0.0516818
746 42 2 -0.0543881 0.998779 0.248686 0.051952
753 42 1 0.0622985 0.861729 0.254796 0.0513314
754 42 1 0.0622985 0.941372 0.182135 0.0515695
739 42 2 -0.0616365 0.0653927 0.38619 0.0525029
740 42 2 -0.0616365 0.021391 0.426334 0.0523713
749 42 1 0.0622985 0.107022 0.401454 0.0527217
750 42 1 0.0622985 0.0273789 0.474114 0.0524837
741 42 2 -0.0543881 0.969971 0.407563 0.0521011
742 42 2 -0.018412 0.962102 0.348445 0.05196
751 42 1 0.0629322 0.934693 0.440661 0.0519973
752 42 1 0.0629322 0.874586 0.361079 0.0515792
182 11 2 -0.0616365 0.410365 0.488697 0.066698
183 11 2 -0.0543881 0.445903 0.538326 0.0667046
192 11 1 0.0622985 0.405391 0.46242 0.0662821
193 11 1 0.0629322 0.469442 0.551707 0.0662905
194 11 1 0.0629322 0.512041 0.635634 0.0668231
181 11 2 -0.0616365 0.380984 0.471496 0.0672041
184 11 2 -0.018412 0.452372 0.571207 0.0672177
185 11 2 -0.0543881 0.487923 0.621113 0.0672299
186 11 2 -0.0616365 0.494016 0.653504 0.0677437
187 11 2 -0.0616365 0.464635 0.636303 0.0682499
188 11 2 -0.0543881 0.429097 0.586674 0.0682433
189 11 2 -0.018412 0.422628 0.553793 0.0677301
190 11 2 -0.0543881 0.387077 0.503887 0.067718
191 11 1 0.0622985 0.352212 0.431286 0.0671982
196 11 1 0.0622985 0.469609 0.66258 0.0686658
197 11 1 0.0629322 0.405558 0.573293 0.0686573
198 11 1 0.0629322 0.36296 0.489367 0.0681248
195 11 1 0.0622985 0.522788 0.693714 0.0677497
309 18 2 -0.0543881 0.8579 0.291492 0.0986976
310 18 2 -0.018412 0.8646 0.241448 0.0983502
311 18 2 -0.0543881 0.91207 0.235789 0.0979667
312 18 2 -0.0616365 0.918265 0.185725 0.097623
313 18 2 -0.0616365 0.877075 0.140883 0.0976594
314 18 2 -0.0543881 0.829601 0.146008 0.0980398
315 18 2 -0.018412 0.8229 0.196051 0.0983871
319 18 1 0.0629322 0.890933 0.328243 0.098673
320 18 1 0.0629322 0.945849 0.271773 0.0979321
321 18 1 0.0622985 0.956699 0.181518 0.0973147
322 18 1 0.0622985 0.882146 0.100355 0.0973807
323 18 1 0.0629322 0.796568 0.109257 0.0980643
307 18 2 -0.0616365 0.769236 0.251775 0.0991144
308 18 2 -0.0616365 0.810425 0.296617 0.0990779
316 18 2 -0.0543881 0.77543 0.201711 0.0987706
317 18 1 0.0622985 0.730802 0.255982 0.0994226
324 18 1 0.0629322 0.741652 0.165727 0.0988052
318 18 1 0.0622985 0.805355 0.337145 0.0993566
594 33 1 0.0629322 0.595031 0.653425 0.113663
577 33 2 -0.0616365 0.637235 0.717538 0.114232
578 33 2 -0.0616365 0.63586 0.773855 0.114465
579 33 2 -0.0543881 0.590543 0.811993 0.114318
580 33 2 -0.018412 0.546179 0.794132 0.113934
581 33 2 -0.0543881 0.500454 0.832014 0.113783
582 33 2 -0.0616365 0.456515 0.813712 0.113401
583 33 2 -0.0616365 0.45789 0.757395 0.113167
584 33 2 -0.0543881 0.503207 0.719257 0.113314
585 33 2 -0.018412 0.547571 0.737118 0.113698
586 33 2 -0.0543881 0.593296 0.699237 0.113849
589 33 1 0.0629322 0.590048 0.857529 0.114511
590 33 1 0.0629322 0.498718 0.877825 0.113969
591 33 1 0.0622985 0.419783 0.844559 0.11328
592 33 1 0.0622985 0.422271 0.742626 0.112857
593 33 1 0.0629322 0.503702 0.673721 0.113121
587 33 1 0.0622985 0.673967 0.686691 0.114352
588 33 1 0.0622985 0.671478 0.788624 0.114775
73 5 2 -0.0616365 0.794071 0.948402 0.1291
74 5 2 -0.0616365 0.801826 0.919757 0.128567
75 5 2 -0.0543881 0.844058 0.876001 0.128514
76 5 2 -0.018412 0.878925 0.8605 0.128994
77 5 2 -0.0543881 0.921468 0.816647 0.128946
78 5 2 -0.0616365 0.955928 0.801598 0.129427
79 5 2 -0.0616365 0.948174 0.830243 0.12996
80 5 2 -0.0543881 0.905942 0.873999 0.130013
81 5 2 -0.018412 0.871075 0.8895 0.129533
82 5 2 -0.0543881 0.828532 0.933353 0.129581
83 5 1 0.0622985 0.759847 0.983837 0.129143
84 5 1 0.0622985 0.773882 0.93199 0.128178
85 5 1 0.0629322 0.849814 0.853178 0.128079
86 5 1 0.0629322 0.928289 0.793007 0.128516
87 5 1 0.0622985 0.990153 0.766163 0.129384
88 5 1 0.0622985 0.976117 0.81801 0.130349
89 5 1 0.0629322 0.900186 0.896822 0.130448
90 5 1 0.0629322 0.82171 0.956993 0.13001
499 28 1 0.0629322 0.212016 0.319737 0.159216
500 28 1 0.0629322 0.309719 0.281064 0.158961
487 28 2 -0.0616365 0.190945 0.313937 0.160704
488 28 2 -0.0616365 0.179697 0.324504 0.160114
489 28 2 -0.0543881 0.221802 0.310903 0.159693
490 28 2 -0.018412 0.275557 0.2866 0.159859
491 28 2 -0.0543881 0.318178 0.272756 0.159441
495 28 2 -0.018412 0.286945 0.275901 0.160457
496 28 2 -0.0543881 0.244323 0.289744 0.160875
497 28 1 0.0622985 0.156801 0.324975 0.161044
504 28 1 0.0629322 0.252783 0.281436 0.161355
492 28 2 -0.0616365 0.371556 0.248564 0.159612
493 28 2 -0.0616365 0.382805 0.237996 0.160202
494 28 2 -0.0543881 0.3407 0.251597 0.160623
501 28 1 0.0622985 0.405701 0.237526 0.159272
502 28 1 0.0622985 0.42606 0.218398 0.16034
503 28 1 0.0629322 0.350486 0.242764 0.1611
498 28 1 0.0622985 0.136441 0.344102 0.159976
840 47 1 0.0622985 0.98801 0.658405 0.174682
830 47 2 -0.0616365 0.0213311 0.669053 0.175032
831 47 2 -0.0543881 0.0732547 0.697435 0.174882
841 47 1 0.0629322 0.0813758 0.709503 0.174409
842 47 1 0.0629322 0.176552 0.751963 0.174698
829 47 2 -0.0616365 0.0105208 0.653818 0.175612
846 47 1 0.0629322 0.0421972 0.654287 0.176513
839 47 1 0.0622985 0.968444 0.63083 0.175733
833 47 2 -0.0543881 0.167138 0.739318 0.175166
838 47 2 -0.0543881 0.0516108 0.666932 0.176044
832 47 2 -0.018412 0.114847 0.710837 0.175312
834 47 2 -0.0616365 0.208228 0.752432 0.175598
835 47 2 -0.0616365 0.197418 0.737197 0.176179
836 47 2 -0.0543881 0.145494 0.708815 0.176329
837 47 2 -0.018412 0.103902 0.695413 0.175899
843 47 1 0.0622985 0.250305 0.77542 0.175478
844 47 1 0.0622985 0.230739 0.747845 0.176529
845 47 1 0.0629322 0.137373 0.696747 0.176802
239 14 2 -0.0543881 0.624638 0.385432 0.191064
240 14 2 -0.0616365 0.632888 0.375718 0.190467
241 14 2 -0.0616365 0.597178 0.403765 0.19006
242 14 2 -0.0543881 0.553139 0.441587 0.190249
243 14 2 -0.018412 0.544424 0.451697 0.190847
244 14 2 -0.0543881 0.500362 0.489568 0.191042
250 14 1 0.0622985 0.603908 0.395857 0.189576
251 14 1 0.0629322 0.524541 0.464003 0.189913
252 14 1 0.0629322 0.471037 0.512645 0.190717
249 14 1 0.0622985 0.668544 0.345092 0.190313
235 14 2 -0.0616365 0.492112 0.499283 0.191639
236 14 2 -0.0616365 0.527822 0.471236 0.192046
237 14 2 -0.0543881 0.571861 0.433413 0.191857
238 14 2 -0.018412 0.580576 0.423303 0.191259
245 14 1 0.0622985 0.456456 0.529908 0.191792
246 14 1 0.0622985 0.521092 0.479144 0.192529
247 14 1 0.0629322 0.600459 0.410997 0.192193
248 14 1 0.0629322 0.653963 0.362355 0.191389
407 23 1 0.0622985 0.223657 0.999868 0.22224
397 23 2 -0.0616365 0.214854 0.952918 0.222112
398 23 2 -0.0616365 0.163822 0.938607 0.22181
399 23 2 -0.0543881 0.152889 0.880667 0.221652
400 23 2 -0.018412 0.192919 0.836505 0.221795
401 23 2 -0.0543881 0.182438 0.778179 0.221638
402 23 2 -0.0616365 0.222647 0.734581 0.221783
403 23 2 -0.0616365 0.273678 0.748892 0.222085
404 23 2 -0.0543881 0.284612 0.806833 0.222243
405 23 2 -0.018412 0.244582 0.850994 0.2221
406 23 2 -0.0543881 0.255063 0.90932 0.222257
408 23 1 0.0622985 0.131289 0.973965 0.221693
409 23 1 0.0629322 0.111298 0.869765 0.221407
410 23 1 0.0629322 0.141253 0.765867 0.221393
411 23 1 0.0622985 0.213844 0.687631 0.221655
412 23 1 0.0622985 0.306212 0.713535 0.222202
413 23 1 0.0629322 0.326203 0.817734 0.222488
414 23 1 0.0629322 0.296248 0.921632 0.222502
631 36 2 -0.0616365 0.367823 0.198012 0.238169
632 36 2 -0.0616365 0.370728 0.140647 0.238374
633 36 2 -0.0543881 0.398361 0.0976161 0.238041
634 36 2 -0.018412 0.423346 0.111587 0.237499
635 36 2 -0.0543881 0.451205 0.0687782 0.23716
636 36 2 -0.0616365 0.475928 0.0832381 0.236621
637 36 2 -0.0616365 0.473023 0.140604 0.236416
638 36 2 -0.0543881 0.44539 0.183634 0.236749
639 36 2 -0.018412 0.420405 0.169663 0.237291
640 36 2 -0.0543881 0.392546 0.212472 0.23763
641 36 1 0.0622985 0.345427 0.232825 0.238439
642 36 1 0.0622985 0.350684 0.128993 0.238811
643 36 1 0.0629322 0.400353 0.0512899 0.238213
644 36 1 0.0629322 0.453925 0.0220551 0.237321
645 36 1 0.0622985 0.498324 0.0484253 0.236351
646 36 1 0.0622985 0.493067 0.152257 0.235979
647 36 1 0.0629322 0.443399 0.22996 0.236577
648 36 1 0.0629322 0.389826 0.259195 0.237469
51 3 1 0.0622985 0.243493 0.835595 0.251505
52 3 1 0.0622985 0.313761 0.751263 0.251387
47 3 1 0.0622985 0.256507 0.664405 0.25418
54 3 1 0.0629322 0.309962 0.649811 0.253231
37 3 2 -0.0616365 0.249013 0.695759 0.253805
38 3 2 -0.0616365 0.210191 0.742351 0.25387
39 3 2 -0.0543881 0.200889 0.781099 0.253407
40 3 2 -0.018412 0.230348 0.773585 0.252875
41 3 2 -0.0543881 0.221382 0.812188 0.252408
42 3 2 -0.0616365 0.250987 0.804241 0.25188
43 3 2 -0.0616365 0.289809 0.757649 0.251815
44 3 2 -0.0543881 0.299111 0.718901 0.252277
45 3 2 -0.018412 0.269651 0.726415 0.252809
46 3 2 -0.0543881 0.278618 0.687812 0.253277
48 3 1 0.0622985 0.186239 0.748737 0.254298
49 3 1 0.0629322 0.169263 0.818672 0.253467
50 3 1 0.0629322 0.190038 0.850189 0.252454
53 3 1 0.0629322 0.330737 0.681328 0.252217
847 48 2 -0.0616365 0.1237 0.285265 0.267421
848 48 2 -0.0616365 0.0645214 0.300017 0.267412
857 48 1 0.0622985 0.154116 0.302796 0.267073
858 48 1 0.0622985 0.0470032 0.329497 0.267055
849 48 2 -0.0543881 0.0269125 0.278412 0.267841
850 48 2 -0.018412 0.0481698 0.241843 0.268285
851 48 2 -0.0543881 0.0108529 0.219875 0.268718
852 48 2 -0.0616365 0.0325509 0.183486 0.269158
853 48 2 -0.0616365 0.0917292 0.168733 0.269168
854 48 2 -0.0543881 0.129338 0.190338 0.268738
855 48 2 -0.018412 0.108081 0.226908 0.268295
856 48 2 -0.0543881 0.145398 0.248875 0.267861
861 48 1 0.0622985 0.00213511 0.165955 0.269506
862 48 1 0.0622985 0.109248 0.139253 0.269524
863 48 1 0.0629322 0.177222 0.177971 0.268752
864 48 1 0.0629322 0.193503 0.237314 0.267863
859 48 1 0.0629322 0.979028 0.29078 0.267827
860 48 1 0.0629322 0.962748 0.231437 0.268716
452 26 2 -0.0616365 0.882662 0.484465 0.282993
453 26 2 -0.0543881 0.918379 0.434963 0.282989
462 26 1 0.0622985 0.879646 0.513151 0.282592
463 26 1 0.0629322 0.944037 0.424114 0.28258
464 26 1 0.0629322 0.984343 0.337271 0.283082
456 26 2 -0.0616365 0.961812 0.313931 0.283981
457 26 2 -0.0616365 0.929838 0.328036 0.284481
465 26 1 0.0622985 0.990726 0.273821 0.283977
466 26 1 0.0622985 0.932854 0.29935 0.284882
451 26 2 -0.0616365 0.850688 0.49857 0.283493
454 26 2 -0.018412 0.922435 0.399111 0.283484
455 26 2 -0.0543881 0.958138 0.349299 0.283484
458 26 2 -0.0543881 0.894121 0.377538 0.284485
459 26 2 -0.018412 0.890065 0.41339 0.28399
460 26 2 -0.0543881 0.854362 0.463202 0.283989
461 26 1 0.0622985 0.821774 0.53868 0.283497
467 26 1 0.0629322 0.868463 0.388387 0.284894
468 26 1 0.0629322 0.828157 0.47523 0.284392
721 41 2 -0.0616365 0.629277 0.548354 0.29902
731 41 1 0.0622985 0.584432 0.538858 0.298834
738 41 1 0.0629322 0.662115 0.582233 0.298189
726 41 2 -0.0616365 0.839474 0.607897 0.299349
727 41 2 -0.0616365 0.827442 0.620268 0.298764
728 41 2 -0.0543881 0.772103 0.608573 0.298534
729 41 2 -0.018412 0.728285 0.584388 0.298888
730 41 2 -0.0543881 0.672558 0.572448 0.298663
736 41 1 0.0622985 0.862542 0.639785 0.298476
737 41 1 0.0629322 0.76303 0.618855 0.298059
722 41 2 -0.0616365 0.641308 0.535982 0.299605
732 41 1 0.0622985 0.606209 0.516466 0.299893
723 41 2 -0.0543881 0.696648 0.547678 0.299834
724 41 2 -0.018412 0.740466 0.571863 0.29948
725 41 2 -0.0543881 0.796192 0.583803 0.299706
733 41 1 0.0629322 0.705721 0.537396 0.30031
734 41 1 0.0629322 0.806636 0.574018 0.300179
735 41 1 0.0622985 0.884319 0.617392 0.299535
129 8 2 -0.0543881 0.216029 0.240716 0.314878
130 8 2 -0.018412 0.204598 0.289259 0.314522
131 8 2 -0.0543881 0.226599 0.292356 0.313951
139 8 1 0.0629322 0.243351 0.203122 0.314708
140 8 1 0.0629322 0.254066 0.255473 0.313768
132 8 2 -0.0616365 0.21491 0.340944 0.3136
133 8 2 -0.0616365 0.181133 0.386858 0.313817
134 8 2 -0.0543881 0.158971 0.384285 0.314385
135 8 2 -0.018412 0.170403 0.335742 0.314742
141 8 1 0.0622985 0.232834 0.343085 0.31314
142 8 1 0.0622985 0.171698 0.42619 0.313533
143 8 1 0.0629322 0.13165 0.421878 0.314555
127 8 2 -0.0616365 0.16009 0.284057 0.315663
128 8 2 -0.0616365 0.193868 0.238142 0.315446
136 8 2 -0.0543881 0.148401 0.332645 0.315313
137 8 1 0.0622985 0.142166 0.281916 0.316124
138 8 1 0.0622985 0.203303 0.198811 0.315731
144 8 1 0.0629322 0.120934 0.369527 0.315495
290 17 2 -0.0616365 0.548684 0.0258045 0.344695
291 17 2 -0.0543881 0.592665 0.0377498 0.345101
293 17 2 -0.0543881 0.652379 0.00745095 0.345931
300 17 1 0.0622985 0.536346 0.0597566 0.344357
301 17 1 0.0629322 0.615564 0.0815848 0.345087
302 17 1 0.0629322 0.676099 0.0508688 0.345928
289 17 2 -0.0616365 0.519943 0.972012 0.344705
292 17 2 -0.018412 0.608298 0.995979 0.345521
295 17 2 -0.0616365 0.638816 0.911695 0.346358
296 17 2 -0.0543881 0.594835 0.89975 0.345952
297 17 2 -0.018412 0.579202 0.941521 0.345532
298 17 2 -0.0543881 0.535122 0.930049 0.345122
299 17 1 0.0622985 0.484325 0.962393 0.344376
304 17 1 0.0622985 0.651154 0.877743 0.346696
305 17 1 0.0629322 0.571936 0.855915 0.345966
306 17 1 0.0629322 0.511401 0.886631 0.345124
294 17 2 -0.0616365 0.667557 0.965487 0.346348
303 17 1 0.0622985 0.703175 0.975106 0.346677
605 34 1 0.0622985 0.747119 0.925538 0.359763
606 34 1 0.0622985 0.856826 0.937402 0.359727
598 34 2 -0.018412 0.827556 0.018943 0.360964
599 34 2 -0.0543881 0.855728 0.0523084 0.361394
600 34 2 -0.0616365 0.823549 0.0788664 0.361839
601 34 2 -0.0616365 0.762937 0.0723118 0.361859
602 34 2 -0.0543881 0.734372 0.0391848 0.361433
603 34 2 -0.018412 0.766194 0.0123071 0.360984
608 34 1 0.0629322 0.904861 0.0580391 0.361384
609 34 1 0.0622985 0.846631 0.105712 0.362185
610 34 1 0.0622985 0.736924 0.0938478 0.36222
611 34 1 0.0629322 0.68519 0.0342835 0.361455
595 34 2 -0.0616365 0.770201 0.952384 0.360108
596 34 2 -0.0616365 0.830813 0.958938 0.360088
597 34 2 -0.0543881 0.859377 0.992065 0.360514
604 34 2 -0.0543881 0.738021 0.978942 0.360554
607 34 1 0.0629322 0.90856 0.996967 0.360492
612 34 1 0.0629322 0.688889 0.973211 0.360564
104 6 1 0.0629322 0.653447 0.20427 0.375524
103 6 1 0.0629322 0.684125 0.101765 0.375367
102 6 1 0.0622985 0.68914 0.997745 0.375718
93 6 2 -0.0543881 0.66432 0.0899212 0.375805
91 6 2 -0.0616365 0.64304 0.016624 0.376536
94 6 2 -0.018412 0.637231 0.132826 0.376149
95 6 2 -0.0543881 0.634059 0.191035 0.37596
96 6 2 -0.0616365 0.606961 0.233376 0.376306
97 6 2 -0.0616365 0.582798 0.217915 0.376844
98 6 2 -0.0543881 0.585681 0.160079 0.377037
99 6 2 -0.018412 0.612769 0.117174 0.376694
100 6 2 -0.0543881 0.615942 0.058965 0.376883
105 6 1 0.0622985 0.604595 0.28024 0.37615
106 6 1 0.0622985 0.560861 0.252255 0.377124
107 6 1 0.0629322 0.565876 0.148235 0.377475
108 6 1 0.0629322 0.596554 0.0457296 0.377318
92 6 2 -0.0616365 0.667203 0.0320853 0.375998
101 6 1 0.0622985 0.645405 0.96976 0.376692
541 31 2 -0.0616365 0.034969 0.583061 0.406341
542 31 2 -0.0616365 0.0107189 0.528185 0.406231
543 31 2 -0.0543881 0.00275071 0.488557 0.406688
544 31 2 -0.018412 0.0189744 0.503472 0.40726
549 31 2 -0.018412 0.0435248 0.559028 0.407372
550 31 2 -0.0543881 0.0513037 0.59843 0.406909
551 31 1 0.0622985 0.0413992 0.615119 0.40597
558 31 1 0.0629322 0.070913 0.643105 0.406991
552 31 1 0.0622985 0.997507 0.515792 0.405771
553 31 1 0.0629322 0.983025 0.444219 0.406592
554 31 1 0.0629322 0.991586 0.419396 0.407641
545 31 2 -0.0543881 0.0111955 0.46407 0.407723
546 31 2 -0.0616365 0.0275303 0.479439 0.408291
547 31 2 -0.0616365 0.0517804 0.534316 0.408401
548 31 2 -0.0543881 0.0597486 0.573943 0.407943
555 31 1 0.0622985 0.0211 0.447381 0.408662
556 31 1 0.0622985 0.0649927 0.546708 0.408861
557 31 1 0.0629322 0.079474 0.618281 0.40804
779 44 2 -0.0543881 0.283383 0.474451 0.422578
780 44 2 -0.0616365 0.262866 0.493234 0.423121
787 44 1 0.0629322 0.332699 0.435947 0.421574
788 44 1 0.0629322 0.253089 0.475997 0.422187
789 44 1 0.0622985 0.216474 0.509734 0.423166
775 44 2 -0.0616365 0.455884 0.413016 0.422405
776 44 2 -0.0616365 0.419197 0.414587 0.421918
777 44 2 -0.0543881 0.361913 0.434944 0.421973
778 44 2 -0.018412 0.340804 0.45392 0.422517
783 44 2 -0.018412 0.377945 0.45233 0.42301
784 44 2 -0.0543881 0.435366 0.431799 0.422949
785 44 1 0.0622985 0.502275 0.396516 0.42236
786 44 1 0.0622985 0.435872 0.399359 0.421478
792 44 1 0.0629322 0.46566 0.430253 0.42334
782 44 2 -0.0543881 0.356837 0.471305 0.423553
781 44 2 -0.0616365 0.299553 0.491663 0.423608
790 44 1 0.0622985 0.282878 0.50689 0.424048
791 44 1 0.0629322 0.38605 0.470303 0.423952
217 13 2 -0.0616365 0.797108 0.663334 0.439277
218 13 2 -0.0616365 0.744103 0.651493 0.439
219 13 2 -0.0543881 0.738393 0.660533 0.438399
228 13 1 0.0622985 0.705735 0.63456 0.439262
229 13 1 0.0629322 0.695115 0.650722 0.43818
220 13 2 -0.018412 0.785669 0.681506 0.43807
221 13 2 -0.0543881 0.780482 0.69076 0.437466
222 13 2 -0.0616365 0.827892 0.711666 0.437144
223 13 2 -0.0616365 0.880897 0.723507 0.437421
224 13 2 -0.0543881 0.886607 0.714467 0.438022
225 13 2 -0.018412 0.839331 0.693494 0.438351
226 13 2 -0.0543881 0.844518 0.68424 0.438955
230 13 1 0.0629322 0.737783 0.681365 0.437235
231 13 1 0.0622985 0.823326 0.719008 0.436657
232 13 1 0.0622985 0.919265 0.74044 0.437159
233 13 1 0.0629322 0.929886 0.724278 0.438241
234 13 1 0.0629322 0.887217 0.693635 0.439186
227 13 1 0.0622985 0.801674 0.655991 0.439764
344 20 2 -0.0616365 0.494923 0.101973 0.468035
353 20 1 0.0622985 0.493971 0.197144 0.467925
354 20 1 0.0622985 0.506938 0.093668 0.467563
343 20 2 -0.0616365 0.487759 0.159142 0.468235
345 20 2 -0.0543881 0.48727 0.0550076 0.468418
346 20 2 -0.018412 0.472376 0.064811 0.469004
347 20 2 -0.0543881 0.464574 0.0180287 0.469392
348 20 2 -0.0616365 0.449741 0.0283574 0.469975
349 20 2 -0.0616365 0.442577 0.0855268 0.470175
350 20 2 -0.0543881 0.45023 0.132492 0.469793
351 20 2 -0.018412 0.465124 0.122688 0.469207
352 20 2 -0.0543881 0.472926 0.169471 0.468819
355 20 1 0.0629322 0.493237 0.00889657 0.468248
358 20 1 0.0622985 0.430562 0.0938313 0.470648
359 20 1 0.0629322 0.444264 0.178603 0.469962
360 20 1 0.0629322 0.467272 0.216091 0.468974
356 20 1 0.0629322 0.470228 0.971409 0.469236
357 20 1 0.0622985 0.443529 0.990355 0.470285
685 39 2 -0.0616365 0.212718 0.808598 0.483936
686 39 2 -0.0616365 0.259449 0.846197 0.484047
695 39 1 0.0622985 0.219696 0.767864 0.483664
696 39 1 0.0622985 0.304279 0.835918 0.483865
702 39 1 0.0629322 0.119891 0.790293 0.484066
699 39 1 0.0622985 0.124054 0.0133854 0.485441
687 39 2 -0.0543881 0.250911 0.896504 0.484382
688 39 2 -0.018412 0.19553 0.909657 0.484609
689 39 2 -0.0543881 0.186403 0.960025 0.484946
690 39 2 -0.0616365 0.131032 0.972651 0.48517
691 39 2 -0.0616365 0.0843005 0.935052 0.485059
692 39 2 -0.0543881 0.0928393 0.884745 0.484724
693 39 2 -0.018412 0.14822 0.871592 0.484496
694 39 2 -0.0543881 0.157347 0.821224 0.484159
697 39 1 0.0629322 0.289255 0.926561 0.484468
698 39 1 0.0629322 0.223859 0.990956 0.48504
700 39 1 0.0622985 0.0394714 0.945331 0.48524
701 39 1 0.0629322 0.0544954 0.854689 0.484637
1 1 2 -0.0616365 0.605103 0.466306 0.499953
2 1 2 -0.0616365 0.607053 0.527205 0.499982
8 1 2 -0.0543881 0.444762 0.440665 0.499988
9 1 2 -0.018412 0.499013 0.469174 0.499985
10 1 2 -0.0543881 0.551334 0.437406 0.499955
11 1 1 0.0622985 0.647107 0.440334 0.499929
12 1 1 0.0622985 0.650637 0.55056 0.49998
17 1 1 0.0629322 0.442447 0.391297 0.499965
18 1 1 0.0629322 0.550486 0.387993 0.499932
3 1 2 -0.0543881 0.555238 0.559336 0.500012
4 1 2 -0.018412 0.500987 0.530827 0.500015
5 1 2 -0.0543881 0.448667 0.562595 0.500045
6 1 2 -0.0616365 0.394897 0.533694 0.500047
7 1 2 -0.0616365 0.392947 0.472795 0.500018
13 1 1 0.0629322 0.557553 0.608704 0.500035
14 1 1 0.0629322 0.449515 0.612008 0.500068
15 1 1 0.0622985 0.352893 0.559667 0.500071
16 1 1 0.0622985 0.349364 0.44944 0.50002
883 50 2 -0.0616365 0.855509 0.423339 0.514568
884 50 2 -0.0616365 0.897237 0.467704 0.514602
885 50 2 -0.0543881 0.894134 0.50927 0.515048
886 50 2 -0.018412 0.849247 0.506832 0.515464
890 50 2 -0.0543881 0.762116 0.459479 0.515847
891 50 2 -0.018412 0.807003 0.461918 0.51543
892 50 2 -0.0543881 0.810588 0.420445 0.514981
893 50 1 0.0622985 0.858073 0.389697 0.514207
894 50 1 0.0622985 0.9336 0.469997 0.514268
895 50 1 0.0629322 0.92831 0.544982 0.515069
899 50 1 0.0629322 0.72794 0.423767 0.515826
900 50 1 0.0629322 0.77708 0.384196 0.514947
887 50 2 -0.0543881 0.845662 0.548305 0.515914
888 50 2 -0.0616365 0.800741 0.545411 0.516326
889 50 2 -0.0616365 0.759013 0.501046 0.516293
896 50 1 0.0629322 0.87917 0.584554 0.515947
897 50 1 0.0622985 0.798177 0.579052 0.516688
898 50 1 0.0622985 0.72265 0.498753 0.516627
415 24 2 -0.0616365 0.257658 0.199898 0.530856
416 24 2 -0.0616365 0.251459 0.16715 0.530345
417 24 2 -0.0543881 0.199427 0.137167 0.530236
418 24 2 -0.018412 0.153112 0.139673 0.530636
419 24 2 -0.0543881 0.100661 0.109766 0.530531
420 24 2 -0.0616365 0.0548424 0.112602 0.530933
421 24 2 -0.0616365 0.0610424 0.14535 0.531444
422 24 2 -0.0543881 0.113074 0.175333 0.531554
423 24 2 -0.018412 0.159389 0.172827 0.531153
424 24 2 -0.0543881 0.21184 0.202734 0.531258
425 24 1 0.0622985 0.299829 0.224163 0.530944
426 24 1 0.0622985 0.288607 0.16489 0.53002
427 24 1 0.0629322 0.195078 0.110796 0.529819
428 24 1 0.0629322 0.0949528 0.0830181 0.530119
429 24 1 0.0622985 0.012672 0.0883366 0.530845
430 24 1 0.0622985 0.0238939 0.14761 0.53177
432 24 1 0.0629322 0.217548 0.229482 0.531671
431 24 1 0.0629322 0.117423 0.201704 0.53197
772 43 1 0.0622985 0.467148 0.670971 0.546503
757 43 2 -0.0616365 0.471753 0.924778 0.546862
758 43 2 -0.0616365 0.493499 0.938165 0.546308
759 43 2 -0.0543881 0.505266 0.89344 0.54591
760 43 2 -0.018412 0.495382 0.834902 0.546062
761 43 2 -0.0543881 0.507022 0.789613 0.545666
762 43 2 -0.0616365 0.496996 0.731472 0.545822
763 43 2 -0.0616365 0.47525 0.718085 0.546376
764 43 2 -0.0543881 0.463483 0.76281 0.546775
765 43 2 -0.018412 0.473367 0.821349 0.546622
766 43 2 -0.0543881 0.461727 0.866637 0.547019
767 43 1 0.0622985 0.462241 0.961048 0.547184
768 43 1 0.0622985 0.501601 0.985279 0.546182
769 43 1 0.0629322 0.52289 0.905012 0.545462
770 43 1 0.0629322 0.524671 0.799756 0.545215
771 43 1 0.0622985 0.506508 0.695202 0.5455
773 43 1 0.0629322 0.445859 0.751238 0.547222
774 43 1 0.0629322 0.444078 0.856495 0.54747
169 10 2 -0.0616365 0.0134694 0.139519 0.562013
170 10 2 -0.0543881 0.0146719 0.0862347 0.561716
178 10 1 0.0622985 0.0546918 0.166536 0.562053
179 10 1 0.0629322 0.057206 0.0706639 0.561516
165 10 2 -0.0543881 0.860328 0.0387654 0.561863
166 10 2 -0.018412 0.911168 0.0725938 0.561915
167 10 2 -0.0543881 0.91052 0.126159 0.562213
168 10 2 -0.0616365 0.96145 0.159459 0.562262
171 10 2 -0.018412 0.963832 0.0524062 0.561664
175 10 1 0.0629322 0.817794 0.0543361 0.562062
176 10 1 0.0629322 0.868677 0.142933 0.562417
177 10 1 0.0622985 0.960537 0.202628 0.562503
180 10 1 0.0629322 0.00632279 0.982067 0.561162
163 10 2 -0.0616365 0.91355 0.965541 0.561317
164 10 2 -0.0616365 0.861531 0.985481 0.561566
172 10 2 -0.0543881 0.96448 0.998841 0.561366
173 10 1 0.0622985 0.914463 0.922372 0.561076
174 10 1 0.0622985 0.820308 0.958464 0.561526
325 19 2 -0.0616365 0.278655 0.764054 0.591915
326 19 2 -0.0616365 0.247036 0.7175 0.59215
335 19 1 0.0622985 0.258822 0.791794 0.591557
336 19 1 0.0622985 0.201592 0.707532 0.591983
334 19 2 -0.0543881 0.334763 0.776419 0.592121
342 19 1 0.0629322 0.359847 0.814328 0.591926
337 19 1 0.0629322 0.245253 0.645606 0.592779
338 19 1 0.0629322 0.327652 0.623172 0.593442
329 19 2 -0.0543881 0.352736 0.66108 0.593247
339 19 1 0.0622985 0.428676 0.645706 0.593811
327 19 2 -0.0543881 0.271456 0.68321 0.592593
328 19 2 -0.018412 0.327744 0.695185 0.592803
330 19 2 -0.0616365 0.408844 0.673446 0.593453
331 19 2 -0.0616365 0.440463 0.72 0.593218
332 19 2 -0.0543881 0.416043 0.75429 0.592776
333 19 2 -0.018412 0.359755 0.742315 0.592565
340 19 1 0.0622985 0.485907 0.729968 0.593385
341 19 1 0.0629322 0.442246 0.791894 0.592589
565 32 2 -0.0616365 0.109855 0.301672 0.607299
566 32 2 -0.0543881 0.078312 0.250399 0.6074
567 32 2 -0.018412 0.0467401 0.243125 0.60792
568 32 2 -0.0543881 0.0149049 0.191856 0.608027
574 32 1 0.0622985 0.135209 0.307178 0.606878
575 32 1 0.0629322 0.0785327 0.214753 0.607057
576 32 1 0.0629322 0.0142527 0.155405 0.607692
563 32 2 -0.0543881 0.0788445 0.339393 0.608236
564 32 2 -0.0616365 0.110121 0.346121 0.607716
573 32 1 0.0622985 0.13569 0.38763 0.607634
561 32 2 -0.0543881 0.0154374 0.280851 0.608863
562 32 2 -0.018412 0.0470093 0.288124 0.608343
571 32 1 0.0629322 0.0152167 0.316496 0.609206
559 32 2 -0.0616365 0.983628 0.185129 0.608547
560 32 2 -0.0616365 0.983894 0.229578 0.608964
569 32 1 0.0622985 0.958059 0.143619 0.608629
570 32 1 0.0622985 0.958541 0.224071 0.609385
572 32 1 0.0629322 0.0794967 0.375845 0.608571
55 4 2 -0.0616365 0.280836 0.318536 0.623457
65 4 1 0.0622985 0.245613 0.283921 0.623432
62 4 2 -0.0543881 0.439326 0.330449 0.623791
64 4 2 -0.0543881 0.337895 0.302971 0.623608
71 4 1 0.0629322 0.45105 0.283415 0.62389
72 4 1 0.0629322 0.348223 0.255559 0.623705
56 4 2 -0.0616365 0.267241 0.376763 0.623336
57 4 2 -0.0543881 0.310674 0.419551 0.623367
66 4 1 0.0622985 0.221005 0.389311 0.623214
67 4 1 0.0629322 0.29895 0.466585 0.623267
58 4 2 -0.018412 0.368118 0.404473 0.623518
59 4 2 -0.0543881 0.412105 0.447028 0.62355
60 4 2 -0.0616365 0.469163 0.431463 0.623701
61 4 2 -0.0616365 0.482759 0.373237 0.623821
63 4 2 -0.018412 0.381882 0.345526 0.62364
68 4 1 0.0629322 0.401777 0.49444 0.623453
69 4 1 0.0622985 0.504387 0.466079 0.623726
70 4 1 0.0622985 0.528995 0.360689 0.623944
515 29 1 0.0622985 0.803321 0.652648 0.655381
517 29 1 0.0629322 0.661846 0.760724 0.654689
505 29 2 -0.0616365 0.788354 0.691384 0.655112
506 29 2 -0.0616365 0.728829 0.703596 0.655059
507 29 2 -0.0543881 0.710279 0.7514 0.654728
508 29 2 -0.018412 0.751119 0.787431 0.654447
509 29 2 -0.0543881 0.733042 0.83555 0.654113
510 29 2 -0.0616365 0.774146 0.871116 0.653835
511 29 2 -0.0616365 0.833671 0.858905 0.653888
512 29 2 -0.0543881 0.852221 0.8111 0.65422
513 29 2 -0.018412 0.811381 0.775069 0.654501
514 29 2 -0.0543881 0.829458 0.72695 0.654834
516 29 1 0.0622985 0.695581 0.674751 0.655284
518 29 1 0.0629322 0.684923 0.846033 0.654065
519 29 1 0.0622985 0.759179 0.909852 0.653567
520 29 1 0.0622985 0.866919 0.88775 0.653663
521 29 1 0.0629322 0.900654 0.801776 0.654258
522 29 1 0.0629322 0.877577 0.716467 0.654882
828 46 1 0.0629322 0.603912 0.161022 0.668766
821 46 1 0.0622985 0.713564 0.168185 0.668773
814 46 2 -0.018412 0.624137 0.213164 0.670173
815 46 2 -0.0543881 0.59183 0.229061 0.670669
816 46 2 -0.0616365 0.530911 0.225149 0.670667
817 46 2 -0.0616365 0.501749 0.205317 0.670169
818 46 2 -0.0543881 0.533442 0.189354 0.669672
819 46 2 -0.018412 0.594613 0.193086 0.669669
820 46 2 -0.0543881 0.62692 0.17719 0.669173
824 46 1 0.0629322 0.614838 0.245228 0.671076
825 46 1 0.0622985 0.505186 0.238065 0.671069
826 46 1 0.0622985 0.452402 0.20217 0.670168
827 46 1 0.0629322 0.509147 0.173353 0.669272
811 46 2 -0.0616365 0.687838 0.181101 0.669175
812 46 2 -0.0616365 0.717001 0.200933 0.669673
813 46 2 -0.0543881 0.685308 0.216897 0.67017
822 46 1 0.0622985 0.766347 0.204081 0.669674
823 46 1 0.0629322 0.709602 0.232897 0.67057
257 15 2 -0.0543881 0.103038 4.58708e-05 0.685049
258 15 2 -0.0616365 0.0574547 0.039047 0.684936
266 15 1 0.0629322 0.149385 0.0131709 0.684936
267 15 1 0.0622985 0.0670951 0.0831403 0.684734
259 15 2 -0.0616365 1.95232e-05 0.0236639 0.685072
268 15 1 0.0622985 0.963138 0.055297 0.684981
253 15 2 -0.0616365 0.0675454 0.835953 0.6858
254 15 2 -0.0616365 0.124981 0.851336 0.685664
255 15 2 -0.0543881 0.136958 0.905753 0.685415
256 15 2 -0.018412 0.0915732 0.945287 0.685299
261 15 2 -0.018412 0.0334269 0.929713 0.685437
262 15 2 -0.0543881 0.0219625 0.874954 0.685687
263 15 1 0.0622985 0.0579049 0.791859 0.686002
264 15 1 0.0622985 0.161862 0.819703 0.685756
265 15 1 0.0629322 0.183772 0.91758 0.685307
260 15 2 -0.0543881 0.988042 0.969246 0.685322
269 15 1 0.0629322 0.941228 0.957419 0.68543
270 15 1 0.0629322 0.975615 0.861829 0.6858
379 22 2 -0.0616365 0.704468 0.243774 0.715815
380 22 2 -0.0616365 0.713512 0.234404 0.716411
388 22 2 -0.0543881 0.704793 0.300557 0.715591
389 22 1 0.0622985 0.696867 0.205347 0.715514
396 22 1 0.0629322 0.697391 0.307433 0.715107
385 22 2 -0.0616365 0.723989 0.453097 0.716115
386 22 2 -0.0543881 0.7146 0.405705 0.715742
387 22 2 -0.018412 0.714173 0.348494 0.715961
394 22 1 0.0622985 0.724264 0.499114 0.715934
395 22 1 0.0629322 0.707332 0.414029 0.715259
381 22 2 -0.0543881 0.722902 0.281795 0.716784
390 22 1 0.0622985 0.713238 0.188386 0.716592
391 22 1 0.0629322 0.73017 0.273472 0.717267
382 22 2 -0.018412 0.723329 0.339007 0.716565
383 22 2 -0.0543881 0.732708 0.386944 0.716935