ITEM: TIMESTEP
0
ITEM: NUMBER OF ATOMS
900
ITEM: BOX BOUNDS pp pp pp
0.0000000000000000e+00 2.1989592999999999e+01
0.0000000000000000e+00 2.1989592999999999e+01
0.0000000000000000e+00 2.1989592920000000e+03
ITEM: ATOMS id mol type q xs ys zs
433 25 2 -0.0616365 0.568689 0.595131 0.0368623
434 25 2 -0.0616365 0.576518 0.586614 0.0362634
435 25 2 -0.0543881 0.622069 0.614884 0.0359714
436 25 2 -0.018412 0.660212 0.651939 0.0362761
441 25 2 -0.018412 0.652286 0.660561 0.0368824
442 25 2 -0.0543881 0.606394 0.631935 0.0371706
443 25 1 0.0622985 0.531773 0.572205 0.0370982
444 25 1 0.0622985 0.545945 0.556791 0.0360142
445 25 1 0.0629322 0.627841 0.607525 0.0354856
450 25 1 0.0629322 0.599465 0.63839 0.0376562
437 25 2 -0.0543881 0.706105 0.680565 0.0359879
438 25 2 -0.0616365 0.74381 0.717369 0.0362962
439 25 2 -0.0616365 0.73598 0.725886 0.0368951
440 25 2 -0.0543881 0.690429 0.697617 0.037187
446 25 1 0.0629322 0.713033 0.674111 0.0355023
447 25 1 0.0622985 0.780725 0.740295 0.0360602
448 25 1 0.0622985 0.766554 0.755709 0.0371442
449 25 1 0.0629322 0.684657 0.704976 0.0376729
742 42 2 -0.018412 0.00713152 0.313022 0.0521706
751 42 1 0.0629322 0.0995514 0.315067 0.0524395
752 42 1 0.0629322 0.0321303 0.233045 0.0526447
743 42 2 -0.0543881 0.996128 0.257801 0.0524126
744 42 2 -0.0616365 0.940656 0.232673 0.0523703
745 42 2 -0.0616365 0.895699 0.262511 0.0520858
746 42 2 -0.0543881 0.906117 0.317541 0.051843
753 42 1 0.0622985 0.932158 0.1881 0.0525667
754 42 1 0.0622985 0.850787 0.242106 0.0520518
739 42 2 -0.0616365 0.0280943 0.423578 0.0516829
740 42 2 -0.0616365 0.0730507 0.39374 0.0519674
741 42 2 -0.0543881 0.0626331 0.338709 0.0522102
749 42 1 0.0622985 0.0365924 0.468151 0.0514864
750 42 1 0.0622985 0.117963 0.414145 0.0520013
747 42 2 -0.018412 0.961618 0.343229 0.0518826
748 42 2 -0.0543881 0.972622 0.39845 0.0516406
755 42 1 0.0629322 0.869199 0.341184 0.0516136
756 42 1 0.0629322 0.93662 0.423206 0.0514085
185 11 2 -0.0543881 0.454468 0.592676 0.0667408
193 11 1 0.0629322 0.4108 0.484237 0.0665627
194 11 1 0.0629322 0.452023 0.579648 0.0662641
195 11 1 0.0622985 0.491262 0.678711 0.0665329
186 11 2 -0.0616365 0.476295 0.647748 0.0668882
181 11 2 -0.0616365 0.398706 0.477252 0.0680597
182 11 2 -0.0616365 0.395346 0.460389 0.0674745
183 11 2 -0.0543881 0.413805 0.498561 0.0670353
184 11 2 -0.018412 0.435799 0.553964 0.0671777
188 11 2 -0.0543881 0.461195 0.626439 0.0679126
189 11 2 -0.018412 0.439201 0.571036 0.0677702
190 11 2 -0.0543881 0.420532 0.532323 0.0682071
191 11 1 0.0622985 0.383738 0.446289 0.068415
192 11 1 0.0622985 0.377657 0.415767 0.0673557
197 11 1 0.0629322 0.4642 0.640763 0.0683852
198 11 1 0.0629322 0.422977 0.545352 0.0686838
187 11 2 -0.0616365 0.479655 0.664611 0.0674734
196 11 1 0.0622985 0.497344 0.709233 0.0675921
307 18 2 -0.0616365 0.938863 0.183039 0.0979349
308 18 2 -0.0616365 0.895429 0.168295 0.0975328
309 18 2 -0.0543881 0.837137 0.182348 0.0976472
310 18 2 -0.018412 0.821764 0.211287 0.0981651
311 18 2 -0.0543881 0.7634 0.225632 0.098285
315 18 2 -0.018412 0.865736 0.226213 0.0985722
316 18 2 -0.0543881 0.9241 0.211868 0.0984523
317 18 1 0.0622985 0.986063 0.171629 0.0978416
318 18 1 0.0622985 0.907447 0.144943 0.0971138
319 18 1 0.0629322 0.802419 0.170092 0.0973167
320 18 1 0.0629322 0.727666 0.213972 0.0979633
312 18 2 -0.0616365 0.748637 0.254461 0.0988025
313 18 2 -0.0616365 0.792071 0.269205 0.0992046
314 18 2 -0.0543881 0.850363 0.255152 0.0990901
321 18 1 0.0622985 0.701437 0.265871 0.0988957
322 18 1 0.0622985 0.780052 0.292557 0.0996235
323 18 1 0.0629322 0.885081 0.267408 0.0994206
324 18 1 0.0629322 0.959834 0.223528 0.098774
590 33 1 0.0629322 0.598775 0.654131 0.113857
591 33 1 0.0622985 0.614134 0.666106 0.112776
577 33 2 -0.0616365 0.501634 0.829177 0.114598
579 33 2 -0.0543881 0.547355 0.733926 0.114562
580 33 2 -0.018412 0.556255 0.739907 0.113959
581 33 2 -0.0543881 0.583497 0.6956 0.113635
582 33 2 -0.0616365 0.592116 0.702072 0.113034
583 33 2 -0.0616365 0.573585 0.752879 0.112752
584 33 2 -0.0543881 0.546395 0.797323 0.11307
585 33 2 -0.018412 0.537495 0.791342 0.113673
586 33 2 -0.0543881 0.510253 0.835649 0.113997
592 33 1 0.0622985 0.580593 0.758065 0.112265
593 33 1 0.0629322 0.531615 0.838264 0.112835
594 33 1 0.0629322 0.494975 0.877118 0.113775
578 33 2 -0.0616365 0.520165 0.77837 0.11488
587 33 1 0.0622985 0.479616 0.865143 0.114856
588 33 1 0.0622985 0.513157 0.773184 0.115367
589 33 1 0.0629322 0.562135 0.692985 0.114797
73 5 2 -0.0616365 0.951664 0.938085 0.129748
74 5 2 -0.0616365 0.954468 0.883854 0.130026
75 5 2 -0.0543881 0.917022 0.838779 0.129855
76 5 2 -0.018412 0.87642 0.847549 0.129404
77 5 2 -0.0543881 0.838592 0.802642 0.129228
78 5 2 -0.0616365 0.798336 0.811916 0.128779
79 5 2 -0.0616365 0.795532 0.866147 0.128501
80 5 2 -0.0543881 0.832979 0.911222 0.128672
81 5 2 -0.018412 0.873581 0.902451 0.129123
82 5 2 -0.0543881 0.911408 0.947358 0.129298
83 5 1 0.0622985 0.982022 0.974559 0.129887
84 5 1 0.0622985 0.987097 0.876401 0.13039
85 5 1 0.0629322 0.919836 0.795045 0.130084
86 5 1 0.0629322 0.840326 0.758411 0.129449
87 5 1 0.0622985 0.767978 0.775442 0.12864
88 5 1 0.0622985 0.762903 0.873599 0.128137
89 5 1 0.0629322 0.830165 0.954955 0.128443
90 5 1 0.0629322 0.909674 0.991589 0.129077
490 28 2 -0.018412 0.301646 0.2745 0.16038
491 28 2 -0.0543881 0.311403 0.215944 0.160532
492 28 2 -0.0616365 0.281124 0.171153 0.160249
493 28 2 -0.0616365 0.240832 0.184489 0.159811
494 28 2 -0.0543881 0.230731 0.242646 0.159655
495 28 2 -0.018412 0.260854 0.288001 0.159936
501 28 1 0.0622985 0.289264 0.124026 0.160374
502 28 1 0.0622985 0.216335 0.148165 0.159581
503 28 1 0.0629322 0.197912 0.252747 0.159299
489 28 2 -0.0543881 0.33177 0.319855 0.160661
499 28 1 0.0629322 0.364588 0.309754 0.161017
500 28 1 0.0629322 0.343941 0.204413 0.160887
487 28 2 -0.0616365 0.281376 0.391348 0.160067
488 28 2 -0.0616365 0.321669 0.378012 0.160506
496 28 2 -0.0543881 0.251097 0.346557 0.159784
497 28 1 0.0622985 0.273236 0.438475 0.159942
504 28 1 0.0629322 0.218559 0.358088 0.15943
498 28 1 0.0622985 0.346165 0.414336 0.160735
845 47 1 0.0629322 0.107351 0.588706 0.175153
846 47 1 0.0629322 0.160127 0.662256 0.174562
829 47 2 -0.0616365 0.167915 0.753917 0.174818
838 47 2 -0.0543881 0.148864 0.696507 0.1749
839 47 1 0.0622985 0.194265 0.765697 0.174417
834 47 2 -0.0616365 0.0508351 0.652333 0.176393
835 47 2 -0.0616365 0.0642801 0.609486 0.17598
836 47 2 -0.0543881 0.0968055 0.623955 0.175484
843 47 1 0.0622985 0.0244857 0.640553 0.176794
844 47 1 0.0622985 0.0488211 0.563 0.176047
840 47 1 0.0622985 0.169929 0.843251 0.175164
830 47 2 -0.0616365 0.15447 0.796765 0.175231
831 47 2 -0.0543881 0.121945 0.782295 0.175727
832 47 2 -0.018412 0.102569 0.724814 0.175814
833 47 2 -0.0543881 0.0698862 0.709743 0.17631
837 47 2 -0.018412 0.116181 0.681436 0.175397
841 47 1 0.0629322 0.111399 0.817545 0.176058
842 47 1 0.0629322 0.0586237 0.743994 0.176649
235 14 2 -0.0616365 0.521369 0.482426 0.190131
236 14 2 -0.0616365 0.474083 0.475472 0.19051
237 14 2 -0.0543881 0.482625 0.451358 0.191064
242 14 2 -0.0543881 0.642375 0.423641 0.191041
243 14 2 -0.018412 0.586436 0.44102 0.190861
244 14 2 -0.0543881 0.5773 0.465283 0.190306
245 14 1 0.0622985 0.514389 0.501964 0.189682
246 14 1 0.0622985 0.428801 0.489376 0.190368
252 14 1 0.0629322 0.615202 0.47121 0.189993
251 14 1 0.0629322 0.681173 0.428995 0.190739
238 14 2 -0.018412 0.538564 0.433979 0.191245
239 14 2 -0.0543881 0.547701 0.409717 0.1918
240 14 2 -0.0616365 0.603631 0.392573 0.191974
241 14 2 -0.0616365 0.650917 0.399528 0.191595
247 14 1 0.0629322 0.443827 0.446005 0.191367
248 14 1 0.0629322 0.509799 0.403789 0.192112
249 14 1 0.0622985 0.610612 0.373035 0.192423
250 14 1 0.0622985 0.696199 0.385624 0.191737
397 23 2 -0.0616365 0.183631 0.943566 0.22163
398 23 2 -0.0616365 0.163576 0.936029 0.222201
399 23 2 -0.0543881 0.175996 0.884452 0.222503
400 23 2 -0.018412 0.208599 0.839934 0.222237
401 23 2 -0.0543881 0.221353 0.787957 0.222535
402 23 2 -0.0616365 0.253871 0.743933 0.222265
403 23 2 -0.0616365 0.273925 0.751471 0.221694
404 23 2 -0.0543881 0.261506 0.803048 0.221392
405 23 2 -0.018412 0.228902 0.847565 0.221658
406 23 2 -0.0543881 0.216148 0.899542 0.22136
407 23 1 0.0622985 0.173539 0.985366 0.221386
408 23 1 0.0622985 0.137241 0.971724 0.22242
411 23 1 0.0622985 0.263962 0.702133 0.222509
412 23 1 0.0622985 0.300261 0.715776 0.221475
413 23 1 0.0629322 0.278083 0.808496 0.220929
414 23 1 0.0629322 0.232101 0.906319 0.220896
409 23 1 0.0629322 0.159419 0.879003 0.222966
410 23 1 0.0629322 0.205401 0.78118 0.222999
646 36 1 0.0622985 0.305122 0.205978 0.236538
647 36 1 0.0629322 0.313573 0.194231 0.237627
631 36 2 -0.0616365 0.454189 0.117122 0.238425
632 36 2 -0.0616365 0.498629 0.0969759 0.238059
633 36 2 -0.0543881 0.493758 0.103591 0.237454
634 36 2 -0.018412 0.44437 0.130427 0.23721
635 36 2 -0.0543881 0.43897 0.137323 0.236603
636 36 2 -0.0616365 0.389561 0.164127 0.236365
637 36 2 -0.0616365 0.34512 0.184274 0.236731
638 36 2 -0.0543881 0.349992 0.177659 0.237336
639 36 2 -0.018412 0.399379 0.150823 0.23758
640 36 2 -0.0543881 0.40478 0.143927 0.238187
642 36 1 0.0622985 0.538628 0.0752715 0.238252
643 36 1 0.0629322 0.530177 0.0870191 0.237163
644 36 1 0.0629322 0.474635 0.121216 0.2363
645 36 1 0.0622985 0.385559 0.169513 0.235875
648 36 1 0.0629322 0.369115 0.160034 0.238489
641 36 1 0.0622985 0.458191 0.111736 0.238915
43 3 2 -0.0616365 0.19987 0.66456 0.253331
52 3 1 0.0622985 0.184697 0.619889 0.253479
53 3 1 0.0629322 0.263166 0.628324 0.252715
44 3 2 -0.0543881 0.243449 0.669444 0.252907
37 3 2 -0.0616365 0.324974 0.785253 0.252112
38 3 2 -0.0616365 0.30013 0.835441 0.252353
39 3 2 -0.0543881 0.256551 0.830556 0.252778
40 3 2 -0.018412 0.237424 0.775405 0.252965
41 3 2 -0.0543881 0.193708 0.769929 0.253391
42 3 2 -0.0616365 0.175027 0.714747 0.253573
45 3 2 -0.018412 0.262576 0.724596 0.25272
46 3 2 -0.0543881 0.306292 0.730072 0.252294
48 3 1 0.0622985 0.315303 0.880111 0.252205
49 3 1 0.0629322 0.236834 0.871676 0.25297
50 3 1 0.0629322 0.173127 0.810214 0.253591
51 3 1 0.0622985 0.13973 0.710728 0.253917
54 3 1 0.0629322 0.326874 0.689786 0.252094
47 3 1 0.0622985 0.36027 0.789272 0.251768
850 48 2 -0.018412 0.0523009 0.21764 0.268315
851 48 2 -0.0543881 0.0521457 0.159332 0.268126
852 48 2 -0.0616365 0.10257 0.134341 0.26789
853 48 2 -0.0616365 0.153588 0.167402 0.26784
854 48 2 -0.0543881 0.154291 0.225525 0.268026
855 48 2 -0.018412 0.10395 0.25111 0.268264
856 48 2 -0.0543881 0.104105 0.309417 0.268453
860 48 1 0.0629322 0.0111151 0.131942 0.268164
861 48 1 0.0622985 0.102061 0.0872651 0.267738
862 48 1 0.0622985 0.194402 0.147104 0.267648
863 48 1 0.0629322 0.196013 0.251761 0.267983
848 48 2 -0.0616365 0.00266316 0.301348 0.268739
849 48 2 -0.0543881 0.00195963 0.243224 0.268553
858 48 1 0.0622985 0.961849 0.321645 0.268931
859 48 1 0.0629322 0.960238 0.216989 0.268596
847 48 2 -0.0616365 0.0536804 0.334408 0.26869
857 48 1 0.0622985 0.05419 0.381484 0.268841
864 48 1 0.0629322 0.145136 0.336807 0.268416
464 26 1 0.0629322 0.024885 0.411829 0.283415
455 26 2 -0.0543881 0.977973 0.42752 0.283424
456 26 2 -0.0616365 0.963032 0.478524 0.283124
457 26 2 -0.0616365 0.905427 0.498572 0.28313
458 26 2 -0.0543881 0.862637 0.467661 0.283437
465 26 1 0.0622985 0.997649 0.503605 0.282876
466 26 1 0.0622985 0.893384 0.539893 0.282887
467 26 1 0.0629322 0.816112 0.48449 0.283438
452 26 2 -0.0616365 0.907073 0.313927 0.284344
461 26 1 0.0622985 0.814851 0.308895 0.284598
462 26 1 0.0622985 0.919116 0.272607 0.284587
463 26 1 0.0629322 0.996388 0.32801 0.284036
451 26 2 -0.0616365 0.849468 0.333976 0.28435
453 26 2 -0.0543881 0.949863 0.344839 0.284037
454 26 2 -0.018412 0.935409 0.396101 0.283734
459 26 2 -0.018412 0.877091 0.416398 0.28374
460 26 2 -0.0543881 0.834528 0.38498 0.28405
468 26 1 0.0629322 0.787615 0.40067 0.284059
726 41 2 -0.0616365 0.657003 0.579687 0.298396
727 41 2 -0.0616365 0.62893 0.560868 0.298904
735 41 1 0.0622985 0.631497 0.584143 0.297975
736 41 1 0.0622985 0.580684 0.55008 0.298894
723 41 2 -0.0543881 0.808396 0.600907 0.298944
724 41 2 -0.018412 0.748586 0.587651 0.298927
725 41 2 -0.0543881 0.716562 0.593023 0.298408
733 41 1 0.0629322 0.831796 0.616225 0.298536
734 41 1 0.0629322 0.738698 0.608232 0.297992
728 41 2 -0.0543881 0.660354 0.555343 0.299424
737 41 1 0.0629322 0.636954 0.540025 0.299832
721 41 2 -0.0616365 0.811747 0.576563 0.299973
722 41 2 -0.0616365 0.839821 0.595382 0.299465
729 41 2 -0.018412 0.720165 0.568599 0.299441
730 41 2 -0.0543881 0.752188 0.563227 0.299961
731 41 1 0.0622985 0.837254 0.572107 0.300394
732 41 1 0.0622985 0.888066 0.60617 0.299475
738 41 1 0.0629322 0.730053 0.548018 0.300377
128 8 2 -0.0616365 0.114661 0.249544 0.315173
129 8 2 -0.0543881 0.115594 0.275064 0.314619
130 8 2 -0.018412 0.163661 0.308577 0.314439
135 8 2 -0.018412 0.211338 0.316422 0.314824
139 8 1 0.0629322 0.0770591 0.268371 0.314316
140 8 1 0.0629322 0.127262 0.328545 0.313571
131 8 2 -0.0543881 0.165115 0.334421 0.313884
132 8 2 -0.0616365 0.213244 0.367707 0.31371
133 8 2 -0.0616365 0.260338 0.375456 0.31409
134 8 2 -0.0543881 0.259405 0.349935 0.314644
141 8 1 0.0622985 0.214057 0.388404 0.313261
142 8 1 0.0622985 0.299297 0.402429 0.313949
143 8 1 0.0629322 0.29794 0.356628 0.314947
127 8 2 -0.0616365 0.161755 0.257293 0.315553
136 8 2 -0.0543881 0.209884 0.290579 0.315379
137 8 1 0.0622985 0.160943 0.236596 0.316002
138 8 1 0.0622985 0.0757031 0.222571 0.315315
144 8 1 0.0629322 0.247738 0.296455 0.315693
296 17 2 -0.0543881 0.553848 0.0207501 0.346004
298 17 2 -0.0543881 0.645529 0.0308628 0.345468
304 17 1 0.0622985 0.471047 0.00620311 0.346464
305 17 1 0.0629322 0.558027 0.0669046 0.346177
306 17 1 0.0629322 0.650971 0.0771566 0.345634
289 17 2 -0.0616365 0.687972 0.00731287 0.345098
299 17 1 0.0622985 0.727189 0.0344565 0.344967
291 17 2 -0.0543881 0.633653 0.916749 0.345049
292 17 2 -0.018412 0.590748 0.939899 0.345421
293 17 2 -0.0543881 0.541972 0.906636 0.345585
294 17 2 -0.0616365 0.499528 0.930186 0.345955
295 17 2 -0.0616365 0.50546 0.987181 0.346164
297 17 2 -0.018412 0.596753 0.9976 0.345632
301 17 1 0.0629322 0.629473 0.870594 0.344876
302 17 1 0.0629322 0.53653 0.860342 0.345419
303 17 1 0.0622985 0.460311 0.903042 0.346086
290 17 2 -0.0616365 0.682041 0.950318 0.344889
300 17 1 0.0622985 0.716453 0.931296 0.344589
609 34 1 0.0622985 0.668409 0.0898874 0.361542
598 34 2 -0.018412 0.789663 0.00469243 0.361253
599 34 2 -0.0543881 0.741245 0.0275804 0.361551
600 34 2 -0.0616365 0.707401 0.071669 0.361299
601 34 2 -0.0616365 0.721649 0.0932673 0.360747
602 34 2 -0.0543881 0.769772 0.0708241 0.360445
603 34 2 -0.018412 0.804087 0.0265582 0.360694
604 34 2 -0.0543881 0.852505 0.0036702 0.360396
608 34 1 0.0629322 0.72912 0.010526 0.362
610 34 1 0.0622985 0.694197 0.12898 0.360543
611 34 1 0.0629322 0.780757 0.0888031 0.359998
612 34 1 0.0629322 0.86463 0.0207247 0.359948
595 34 2 -0.0616365 0.88635 0.959582 0.360649
596 34 2 -0.0616365 0.872102 0.937983 0.361201
597 34 2 -0.0543881 0.823979 0.960427 0.361502
605 34 1 0.0622985 0.925342 0.941363 0.360405
606 34 1 0.0622985 0.899553 0.90227 0.361405
607 34 1 0.0629322 0.812993 0.942448 0.36195
92 6 2 -0.0616365 0.586738 0.199884 0.375705
102 6 1 0.0622985 0.581296 0.235324 0.375364
103 6 1 0.0629322 0.682086 0.203206 0.375662
91 6 2 -0.0616365 0.537575 0.174155 0.375958
93 6 2 -0.0543881 0.642648 0.181911 0.375871
94 6 2 -0.018412 0.649886 0.138023 0.376293
97 6 2 -0.0616365 0.663263 0.0501158 0.377138
98 6 2 -0.0543881 0.607352 0.068089 0.376971
99 6 2 -0.018412 0.600114 0.111976 0.376549
100 6 2 -0.0543881 0.544216 0.130397 0.376378
101 6 1 0.0622985 0.492311 0.188755 0.375823
107 6 1 0.0629322 0.567915 0.0467937 0.37718
108 6 1 0.0629322 0.503909 0.10996 0.37658
95 6 2 -0.0543881 0.705785 0.119602 0.376464
96 6 2 -0.0616365 0.712426 0.0758444 0.376884
104 6 1 0.0629322 0.746091 0.14004 0.376262
105 6 1 0.0622985 0.757689 0.0612444 0.377019
106 6 1 0.0622985 0.668704 0.0146758 0.377478
541 31 2 -0.0616365 0.109393 0.607409 0.407143
542 31 2 -0.0616365 0.12924 0.573114 0.407607
544 31 2 -0.018412 0.0412969 0.51389 0.407551
549 31 2 -0.018412 0.0212038 0.548609 0.407081
550 31 2 -0.0543881 0.0556196 0.595225 0.406881
551 31 1 0.0622985 0.136883 0.645105 0.40698
558 31 1 0.0629322 0.040132 0.623447 0.406506
546 31 2 -0.0616365 0.953108 0.45509 0.407488
547 31 2 -0.0616365 0.93326 0.489385 0.407024
548 31 2 -0.0543881 0.967143 0.535938 0.406822
556 31 1 0.0622985 0.889694 0.479467 0.406813
557 31 1 0.0629322 0.950438 0.563344 0.406445
543 31 2 -0.0543881 0.0953574 0.526561 0.40781
545 31 2 -0.0543881 0.00688116 0.467274 0.40775
552 31 1 0.0622985 0.172806 0.583032 0.407819
553 31 1 0.0629322 0.112063 0.499156 0.408187
554 31 1 0.0629322 0.0223688 0.439053 0.408126
555 31 1 0.0622985 0.925618 0.417394 0.407652
779 44 2 -0.0543881 0.304722 0.3944 0.422881
780 44 2 -0.0616365 0.253396 0.422471 0.422706
781 44 2 -0.0616365 0.255284 0.480247 0.422512
782 44 2 -0.0543881 0.308503 0.510077 0.422491
788 44 1 0.0629322 0.302465 0.34753 0.423037
789 44 1 0.0622985 0.210258 0.39836 0.422723
790 44 1 0.0622985 0.213676 0.502933 0.42237
791 44 1 0.0629322 0.309308 0.556922 0.422332
775 44 2 -0.0616365 0.465354 0.48378 0.42282
776 44 2 -0.0616365 0.463466 0.426004 0.423015
777 44 2 -0.0543881 0.410246 0.396174 0.423036
778 44 2 -0.018412 0.358419 0.42388 0.422862
783 44 2 -0.018412 0.360331 0.482371 0.422665
784 44 2 -0.0543881 0.414027 0.511851 0.422646
785 44 1 0.0622985 0.508492 0.507891 0.422804
786 44 1 0.0622985 0.505074 0.403318 0.423156
787 44 1 0.0629322 0.409441 0.349329 0.423195
792 44 1 0.0629322 0.416285 0.558721 0.422489
217 13 2 -0.0616365 0.910966 0.644925 0.438474
218 13 2 -0.0616365 0.911088 0.651329 0.437868
226 13 2 -0.0543881 0.861871 0.661311 0.438798
227 13 1 0.0622985 0.950665 0.626448 0.438704
228 13 1 0.0622985 0.950885 0.638038 0.437606
234 13 1 0.0629322 0.862453 0.655846 0.43929
219 13 2 -0.0543881 0.862115 0.674132 0.437583
220 13 2 -0.018412 0.812562 0.690741 0.437904
221 13 2 -0.0543881 0.763129 0.713689 0.437623
222 13 2 -0.0616365 0.714034 0.730075 0.437947
223 13 2 -0.0616365 0.713912 0.723671 0.438553
224 13 2 -0.0543881 0.762885 0.700868 0.438838
225 13 2 -0.018412 0.812438 0.684259 0.438518
229 13 1 0.0629322 0.862895 0.679053 0.437091
230 13 1 0.0629322 0.762547 0.719154 0.437131
231 13 1 0.0622985 0.674335 0.748552 0.437717
232 13 1 0.0622985 0.674115 0.736962 0.438815
233 13 1 0.0629322 0.762105 0.695947 0.43933
348 20 2 -0.0616365 0.481923 0.0450059 0.468123
349 20 2 -0.0616365 0.474703 0.104466 0.468007
357 20 1 0.0622985 0.488705 0.0132538 0.46775
358 20 1 0.0622985 0.475637 0.120877 0.467541
343 20 2 -0.0616365 0.455576 0.142495 0.470088
344 20 2 -0.0616365 0.462797 0.0830349 0.470203
345 20 2 -0.0543881 0.471174 0.043777 0.469743
346 20 2 -0.018412 0.472405 0.0636523 0.469164
347 20 2 -0.0543881 0.480782 0.024674 0.468698
350 20 2 -0.0543881 0.466326 0.143724 0.468467
351 20 2 -0.018412 0.465095 0.123849 0.469047
352 20 2 -0.0543881 0.456718 0.162827 0.469512
353 20 1 0.0622985 0.448794 0.174248 0.470461
354 20 1 0.0622985 0.461863 0.0666243 0.47067
359 20 1 0.0629322 0.460536 0.191817 0.468367
360 20 1 0.0629322 0.450796 0.211182 0.469426
355 20 1 0.0629322 0.476963 0.995685 0.469844
356 20 1 0.0629322 0.486704 0.976319 0.468785
702 39 1 0.0629322 0.165726 0.00330035 0.484062
685 39 2 -0.0616365 0.103345 0.93547 0.483811
686 39 2 -0.0616365 0.0848864 0.877788 0.483884
695 39 1 0.0622985 0.0794514 0.965287 0.483497
696 39 1 0.0622985 0.0460412 0.860883 0.483629
687 39 2 -0.0543881 0.114335 0.84092 0.484271
688 39 2 -0.018412 0.162531 0.861427 0.484589
689 39 2 -0.0543881 0.192456 0.824841 0.48498
690 39 2 -0.0616365 0.240404 0.84578 0.485294
691 39 2 -0.0616365 0.258863 0.903462 0.485221
692 39 2 -0.0543881 0.229414 0.94033 0.484834
693 39 2 -0.018412 0.181218 0.919823 0.484516
694 39 2 -0.0543881 0.151293 0.956409 0.484126
697 39 1 0.0629322 0.0988273 0.794249 0.484325
698 39 1 0.0629322 0.178024 0.777949 0.485043
699 39 1 0.0622985 0.264298 0.815963 0.485608
700 39 1 0.0622985 0.297708 0.920366 0.485476
701 39 1 0.0629322 0.244922 0.987 0.48478
1 1 2 -0.0616365 0.605103 0.466306 0.499953
2 1 2 -0.0616365 0.607053 0.527205 0.499982
8 1 2 -0.0543881 0.444762 0.440665 0.499988
9 1 2 -0.018412 0.499013 0.469174 0.499985
10 1 2 -0.0543881 0.551334 0.437406 0.499955
11 1 1 0.0622985 0.647107 0.440334 0.499929
12 1 1 0.0622985 0.650637 0.55056 0.49998
17 1 1 0.0629322 0.442447 0.391297 0.499965
18 1 1 0.0629322 0.550486 0.387993 0.499932
3 1 2 -0.0543881 0.555238 0.559336 0.500012
4 1 2 -0.018412 0.500987 0.530827 0.500015
5 1 2 -0.0543881 0.448667 0.562595 0.500045
6 1 2 -0.0616365 0.394897 0.533694 0.500047
7 1 2 -0.0616365 0.392947 0.472795 0.500018
13 1 1 0.0629322 0.557553 0.608704 0.500035
14 1 1 0.0629322 0.449515 0.612008 0.500068
15 1 1 0.0622985 0.352893 0.559667 0.500071
16 1 1 0.0622985 0.349364 0.44944 0.50002
883 50 2 -0.0616365 0.779288 0.583145 0.515368
884 50 2 -0.0616365 0.812417 0.584803 0.51588
886 50 2 -0.018412 0.844895 0.485214 0.515706
887 50 2 -0.0543881 0.877503 0.436003 0.515871
888 50 2 -0.0616365 0.876963 0.385604 0.515527
889 50 2 -0.0616365 0.843834 0.383947 0.515015
890 50 2 -0.0543881 0.811171 0.432684 0.514846
891 50 2 -0.018412 0.811355 0.483536 0.515188
892 50 2 -0.0543881 0.778748 0.532747 0.515024
893 50 1 0.0622985 0.752851 0.622654 0.515232
897 50 1 0.0622985 0.9034 0.346095 0.515663
898 50 1 0.0622985 0.843436 0.343095 0.514736
899 50 1 0.0629322 0.784526 0.430651 0.51443
900 50 1 0.0629322 0.751656 0.532091 0.51461
885 50 2 -0.0543881 0.845079 0.536066 0.516049
894 50 1 0.0622985 0.812815 0.625655 0.516158
895 50 1 0.0629322 0.871725 0.538099 0.516465
896 50 1 0.0629322 0.904595 0.436658 0.516285
415 24 2 -0.0616365 0.228469 0.0946748 0.53146
416 24 2 -0.0616365 0.194697 0.0555419 0.531136
417 24 2 -0.0543881 0.150237 0.0763149 0.530773
418 24 2 -0.018412 0.139155 0.136441 0.530731
419 24 2 -0.0543881 0.0946456 0.157834 0.530368
420 24 2 -0.0616365 0.0840302 0.217825 0.530329
421 24 2 -0.0616365 0.117802 0.256958 0.530653
422 24 2 -0.0543881 0.162263 0.236185 0.531016
423 24 2 -0.018412 0.173345 0.176059 0.531059
424 24 2 -0.0543881 0.217854 0.154666 0.531422
425 24 1 0.0622985 0.264469 0.0777894 0.531754
426 24 1 0.0622985 0.203343 0.00695916 0.531168
427 24 1 0.0629322 0.12323 0.0440163 0.530513
428 24 1 0.0629322 0.0668734 0.126658 0.530102
429 24 1 0.0622985 0.0480301 0.23471 0.530035
430 24 1 0.0622985 0.109157 0.305541 0.530622
431 24 1 0.0629322 0.18927 0.268484 0.531276
432 24 1 0.0629322 0.245626 0.185842 0.531687
757 43 2 -0.0616365 0.556665 0.795508 0.545573
758 43 2 -0.0616365 0.510339 0.821189 0.545271
759 43 2 -0.0543881 0.462676 0.843899 0.545577
760 43 2 -0.018412 0.460925 0.841125 0.546189
761 43 2 -0.0543881 0.41332 0.863768 0.546502
762 43 2 -0.0616365 0.412084 0.860742 0.547111
763 43 2 -0.0616365 0.458411 0.835062 0.547414
764 43 2 -0.0543881 0.506074 0.812352 0.547107
765 43 2 -0.018412 0.507825 0.815126 0.546495
766 43 2 -0.0543881 0.55543 0.792483 0.546183
767 43 1 0.0622985 0.595246 0.777129 0.545324
768 43 1 0.0622985 0.511395 0.823611 0.544777
769 43 1 0.0629322 0.425443 0.86459 0.545325
770 43 1 0.0629322 0.375408 0.884732 0.546263
771 43 1 0.0622985 0.373503 0.879121 0.54736
773 43 1 0.0629322 0.543306 0.791661 0.547359
774 43 1 0.0629322 0.593341 0.771518 0.546422
772 43 1 0.0622985 0.457354 0.83264 0.547907
163 10 2 -0.0616365 0.0374653 0.0795942 0.561351
164 10 2 -0.0616365 0.0162734 0.0285527 0.561093
172 10 2 -0.0543881 0.00360753 0.109364 0.561763
173 10 1 0.0622985 0.0821015 0.0968664 0.561227
174 10 1 0.0622985 0.0437442 0.00448162 0.56076
180 10 1 0.0629322 0.0214126 0.150701 0.561968
165 10 2 -0.0543881 0.961178 0.00717018 0.561246
166 10 2 -0.018412 0.926773 0.0366633 0.561659
167 10 2 -0.0543881 0.871392 0.015636 0.561816
168 10 2 -0.0616365 0.837534 0.0454059 0.562227
169 10 2 -0.0616365 0.858726 0.0964473 0.562486
170 10 2 -0.0543881 0.913822 0.11783 0.562333
171 10 2 -0.018412 0.948227 0.0883367 0.56192
177 10 1 0.0622985 0.792898 0.0281337 0.562352
178 10 1 0.0622985 0.831255 0.120518 0.562819
179 10 1 0.0629322 0.930391 0.159284 0.562546
175 10 1 0.0629322 0.944608 0.965716 0.561033
176 10 1 0.0629322 0.853587 0.974299 0.56161
332 19 2 -0.0543881 0.309403 0.753943 0.59204
341 19 1 0.0629322 0.265424 0.756787 0.591815
330 19 2 -0.0616365 0.411418 0.78143 0.592076
331 19 2 -0.0616365 0.356846 0.78439 0.591805
339 19 1 0.0622985 0.44981 0.806114 0.591886
340 19 1 0.0622985 0.351035 0.811472 0.591396
325 19 2 -0.0616365 0.276082 0.656071 0.593292
326 19 2 -0.0616365 0.330654 0.653111 0.593563
335 19 1 0.0622985 0.23769 0.631386 0.593482
336 19 1 0.0622985 0.336464 0.626029 0.593973
333 19 2 -0.018412 0.316126 0.720249 0.592547
334 19 2 -0.0543881 0.268834 0.689484 0.592786
342 19 1 0.0629322 0.224295 0.691441 0.592572
327 19 2 -0.0543881 0.378096 0.683558 0.593329
328 19 2 -0.018412 0.371374 0.717252 0.592821
329 19 2 -0.0543881 0.418666 0.748016 0.592582
337 19 1 0.0629322 0.422076 0.680714 0.593554
338 19 1 0.0629322 0.463204 0.746059 0.592796
561 32 2 -0.0543881 0.117725 0.237734 0.607853
562 32 2 -0.018412 0.0583551 0.252772 0.607875
563 32 2 -0.0543881 0.0214328 0.242679 0.607397
571 32 1 0.0629322 0.136782 0.217108 0.607446
572 32 1 0.0629322 0.0391635 0.22212 0.606983
564 32 2 -0.0616365 0.962368 0.257851 0.607424
565 32 2 -0.0616365 0.939689 0.283242 0.60793
573 32 1 0.0622985 0.932887 0.249553 0.607036
574 32 1 0.0622985 0.891837 0.295511 0.607952
559 32 2 -0.0616365 0.131382 0.273399 0.608839
560 32 2 -0.0616365 0.154061 0.248008 0.608333
567 32 2 -0.018412 0.0353948 0.278477 0.608388
568 32 2 -0.0543881 0.0723171 0.288571 0.608866
569 32 1 0.0622985 0.160863 0.281696 0.609227
570 32 1 0.0622985 0.201913 0.235739 0.608311
576 32 1 0.0629322 0.0545864 0.309129 0.60928
566 32 2 -0.0543881 0.976025 0.293516 0.60841
575 32 1 0.0629322 0.956968 0.314142 0.608817
55 4 2 -0.0616365 0.316026 0.314772 0.622865
56 4 2 -0.0616365 0.282443 0.318322 0.623373
65 4 1 0.0622985 0.299061 0.289754 0.622474
66 4 1 0.0622985 0.238277 0.296179 0.623393
57 4 2 -0.0543881 0.303322 0.349191 0.623856
58 4 2 -0.018412 0.358001 0.376797 0.623836
61 4 2 -0.0616365 0.467557 0.431677 0.623785
62 4 2 -0.0543881 0.446678 0.400808 0.623301
63 4 2 -0.018412 0.391999 0.373203 0.623322
64 4 2 -0.0543881 0.37056 0.342083 0.622839
70 4 1 0.0622985 0.511723 0.45382 0.623765
71 4 1 0.0629322 0.474438 0.398333 0.622893
72 4 1 0.0629322 0.397272 0.3388 0.622424
67 4 1 0.0629322 0.275561 0.351667 0.624265
59 4 2 -0.0543881 0.37944 0.407916 0.624318
60 4 2 -0.0616365 0.433974 0.435227 0.624293
68 4 1 0.0629322 0.352727 0.411199 0.624734
69 4 1 0.0622985 0.450938 0.460246 0.624684
516 29 1 0.0622985 0.827175 0.629568 0.654357
518 29 1 0.0629322 0.663976 0.756499 0.654752
519 29 1 0.0622985 0.65025 0.865461 0.65479
505 29 2 -0.0616365 0.867786 0.715846 0.654264
506 29 2 -0.0616365 0.820783 0.678569 0.654375
507 29 2 -0.0543881 0.76586 0.701716 0.654507
508 29 2 -0.018412 0.757458 0.762381 0.654529
509 29 2 -0.0543881 0.702533 0.786149 0.654661
510 29 2 -0.0616365 0.694715 0.846654 0.654683
511 29 2 -0.0616365 0.741719 0.88393 0.654572
512 29 2 -0.0543881 0.796642 0.860783 0.65444
513 29 2 -0.018412 0.805043 0.800119 0.654418
514 29 2 -0.0543881 0.859969 0.77635 0.654286
515 29 1 0.0622985 0.912251 0.697038 0.654158
517 29 1 0.0629322 0.728175 0.670903 0.654595
520 29 1 0.0622985 0.735326 0.932931 0.65459
521 29 1 0.0629322 0.834326 0.891596 0.654352
522 29 1 0.0629322 0.898525 0.806001 0.654195
823 46 1 0.0629322 0.610066 0.253443 0.668798
813 46 2 -0.0543881 0.626216 0.247183 0.669262
814 46 2 -0.018412 0.598974 0.206714 0.669632
815 46 2 -0.0543881 0.551393 0.173263 0.669439
816 46 2 -0.0616365 0.524625 0.133091 0.669813
817 46 2 -0.0616365 0.545173 0.126 0.670383
818 46 2 -0.0543881 0.592534 0.159065 0.67058
819 46 2 -0.018412 0.619776 0.199535 0.670209
824 46 1 0.0629322 0.534213 0.178505 0.668978
825 46 1 0.0622985 0.486259 0.10628 0.669654
826 46 1 0.0622985 0.52345 0.0934455 0.670685
827 46 1 0.0629322 0.608684 0.152805 0.671044
811 46 2 -0.0616365 0.694124 0.273157 0.670029
812 46 2 -0.0616365 0.673576 0.280248 0.669459
820 46 2 -0.0543881 0.667356 0.232986 0.670403
821 46 1 0.0622985 0.732491 0.299968 0.670188
822 46 1 0.0622985 0.695299 0.312803 0.669157
828 46 1 0.0629322 0.684536 0.227743 0.670864
259 15 2 -0.0616365 0.0965999 0.882099 0.684475
260 15 2 -0.0543881 0.0682905 0.93552 0.68456
268 15 1 0.0622985 0.107283 0.866757 0.684018
269 15 1 0.0629322 0.056316 0.962973 0.684166
253 15 2 -0.0616365 0.0132802 0.0273707 0.685781
262 15 2 -0.0543881 0.0264368 0.00849403 0.685216
264 15 1 0.0622985 0.0177172 0.00824392 0.686719
270 15 1 0.0629322 0.0138861 0.0369517 0.684831
263 15 1 0.0622985 0.99035 0.0706333 0.68585
254 15 2 -0.0616365 0.0284001 0.992901 0.686261
255 15 2 -0.0543881 0.0567095 0.93948 0.686177
256 15 2 -0.018412 0.0701536 0.920052 0.685611
257 15 2 -0.0543881 0.0985633 0.866507 0.685521
258 15 2 -0.0616365 0.11172 0.84763 0.684955
261 15 2 -0.018412 0.0548464 0.954948 0.685125
265 15 1 0.0629322 0.068684 0.912027 0.686571
266 15 1 0.0629322 0.111114 0.838049 0.685906
267 15 1 0.0622985 0.13465 0.804367 0.684886
385 22 2 -0.0616365 0.81687 0.294997 0.716404
387 22 2 -0.018412 0.714722 0.322789 0.716486
394 22 1 0.0622985 0.854837 0.266912 0.716551
380 22 2 -0.0616365 0.620629 0.392501 0.716122
390 22 1 0.0622985 0.582663 0.420586 0.715975
381 22 2 -0.0543881 0.675427 0.399291 0.715862
382 22 2 -0.018412 0.722777 0.364709 0.71604
383 22 2 -0.0543881 0.778001 0.371112 0.715782
384 22 2 -0.0616365 0.824826 0.336404 0.715963
391 22 1 0.0629322 0.681174 0.433066 0.715505
392 22 1 0.0629322 0.785159 0.4045 0.715424
393 22 1 0.0622985 0.869236 0.341859 0.715753
388 22 2 -0.0543881 0.659498 0.316387 0.716744
396 22 1 0.0629322 0.65234 0.282999 0.717102