ITEM: TIMESTEP
0
ITEM: NUMBER OF ATOMS
900
ITEM: BOX BOUNDS pp pp pp
0.0000000000000000e+00 2.1989592999999999e+01
0.0000000000000000e+00 2.1989592999999999e+01
0.0000000000000000e+00 2.1989592920000000e+03
ITEM: ATOMS id mol type q xs ys zs
433 25 2 -0.0616365 0.661831 0.462674 0.0340247
435 25 2 -0.0543881 0.568801 0.45764 0.0344787
436 25 2 -0.018412 0.576679 0.512516 0.0347353
434 25 2 -0.0616365 0.608852 0.433522 0.0341008
444 25 1 0.0622985 0.601527 0.388061 0.0338832
445 25 1 0.0629322 0.528138 0.433076 0.0345812
441 25 2 -0.018412 0.629525 0.541258 0.0346455
440 25 2 -0.0543881 0.637619 0.596695 0.0349092
443 25 1 0.0622985 0.696067 0.444775 0.0337499
450 25 1 0.0629322 0.716411 0.540031 0.0342359
449 25 1 0.0629322 0.679406 0.623306 0.0348345
442 25 2 -0.0543881 0.673308 0.515429 0.0343086
446 25 1 0.0629322 0.491628 0.513179 0.0352016
437 25 2 -0.0543881 0.53469 0.537962 0.0351084
438 25 2 -0.0616365 0.545719 0.592213 0.035407
447 25 1 0.0622985 0.509568 0.609169 0.0357182
439 25 2 -0.0616365 0.597735 0.621832 0.0352977
448 25 1 0.0622985 0.60314 0.6645 0.0355149
194 11 1 0.0629322 0.128633 0.1481 0.0578511
185 11 2 -0.0543881 0.129758 0.190531 0.0581206
193 11 1 0.0629322 0.108919 0.0919569 0.0587149
183 11 2 -0.0543881 0.109366 0.134054 0.0589669
182 11 2 -0.0616365 0.0963799 0.129786 0.0595352
192 11 1 0.0622985 0.0881527 0.0859608 0.0597201
181 11 2 -0.0616365 0.093217 0.180177 0.0598815
184 11 2 -0.018412 0.117567 0.188444 0.0587177
188 11 2 -0.0543881 0.127788 0.295506 0.0587786
186 11 2 -0.0616365 0.142121 0.24522 0.0578732
187 11 2 -0.0616365 0.139822 0.298609 0.0581683
195 11 1 0.0622985 0.152169 0.245867 0.0573768
198 11 1 0.0629322 0.0904751 0.275076 0.0599404
189 11 2 -0.018412 0.115251 0.240467 0.0590548
190 11 2 -0.0543881 0.100323 0.233852 0.0596473
191 11 1 0.0622985 0.0836139 0.175621 0.060349
196 11 1 0.0622985 0.152715 0.338916 0.0579207
197 11 1 0.0629322 0.13298 0.337355 0.0590237
753 42 1 0.0622985 0.447939 0.645899 0.0584705
754 42 1 0.0622985 0.526121 0.635515 0.0577273
751 42 1 0.0629322 0.50983 0.801412 0.0597889
741 42 2 -0.0543881 0.541441 0.80048 0.0593856
742 42 2 -0.018412 0.537224 0.758957 0.058943
748 42 2 -0.0543881 0.628353 0.790771 0.058537
756 42 1 0.0629322 0.661785 0.795329 0.0581709
740 42 2 -0.0616365 0.590202 0.83814 0.0594033
750 42 1 0.0622985 0.596052 0.873353 0.0597584
739 42 2 -0.0616365 0.63315 0.833619 0.0589685
745 42 2 -0.0616365 0.529268 0.672931 0.0580669
744 42 2 -0.0616365 0.484686 0.676182 0.0585223
752 42 1 0.0629322 0.450695 0.726204 0.0592429
743 42 2 -0.0543881 0.488508 0.722268 0.0589214
746 42 2 -0.0543881 0.573196 0.712151 0.0580895
747 42 2 -0.018412 0.58193 0.752686 0.0585207
755 42 1 0.0629322 0.605556 0.710431 0.0576867
749 42 1 0.0622985 0.674251 0.864642 0.0589345
311 18 2 -0.0543881 0.607995 0.826945 0.110455
320 18 1 0.0629322 0.560549 0.844887 0.110434
307 18 2 -0.0616365 0.665126 0.726225 0.10904
308 18 2 -0.0616365 0.611053 0.751544 0.109019
318 18 1 0.0622985 0.581781 0.740616 0.10862
309 18 2 -0.0543881 0.593028 0.789889 0.109471
310 18 2 -0.018412 0.626523 0.796162 0.109956
319 18 1 0.0629322 0.546092 0.807987 0.109413
312 18 2 -0.0616365 0.64356 0.834875 0.110925
321 18 1 0.0622985 0.62574 0.861318 0.11132
317 18 1 0.0622985 0.681191 0.695384 0.108677
314 18 2 -0.0543881 0.719348 0.77586 0.110456
322 18 1 0.0622985 0.729646 0.810868 0.111318
313 18 2 -0.0616365 0.699931 0.807601 0.11094
323 18 1 0.0629322 0.76318 0.755365 0.110429
324 18 1 0.0629322 0.753106 0.722982 0.109525
315 18 2 -0.018412 0.68373 0.77178 0.109972
316 18 2 -0.0543881 0.703862 0.739871 0.109484
586 33 2 -0.0543881 0.0845299 0.332792 0.114002
594 33 1 0.0629322 0.102673 0.286763 0.113966
593 33 1 0.0629322 0.143581 0.308006 0.113054
591 33 1 0.0622985 0.124415 0.486815 0.112293
578 33 2 -0.0616365 0.0373138 0.407632 0.114581
577 33 2 -0.0616365 0.0562049 0.349018 0.114513
579 33 2 -0.0543881 0.0452638 0.449311 0.114142
580 33 2 -0.018412 0.0749041 0.432947 0.113632
585 33 2 -0.018412 0.094314 0.374291 0.113574
584 33 2 -0.0543881 0.125336 0.354928 0.113056
590 33 1 0.0629322 0.0706178 0.51571 0.113189
581 33 2 -0.0543881 0.0856649 0.470452 0.113155
582 33 2 -0.0616365 0.115957 0.452146 0.112649
583 33 2 -0.0616365 0.134276 0.394899 0.112613
592 33 1 0.0622985 0.160533 0.381299 0.112206
589 33 1 0.0629322 0.0326487 0.494596 0.114191
587 33 1 0.0622985 0.0485891 0.314925 0.114845
588 33 1 0.0622985 0.0161707 0.42028 0.115003
88 5 1 0.0622985 0.261309 0.59332 0.124195
75 5 2 -0.0543881 0.300791 0.611994 0.126504
76 5 2 -0.018412 0.287499 0.60727 0.125926
85 5 1 0.0629322 0.276295 0.58032 0.126827
87 5 1 0.0622985 0.188544 0.538267 0.124963
78 5 2 -0.0616365 0.229549 0.566227 0.125096
79 5 2 -0.0616365 0.266493 0.596393 0.124702
77 5 2 -0.0543881 0.242132 0.571191 0.125701
86 5 1 0.0629322 0.210945 0.545144 0.125974
80 5 2 -0.0543881 0.310666 0.633261 0.124918
81 5 2 -0.018412 0.319377 0.639036 0.125513
89 5 1 0.0629322 0.336866 0.661369 0.124619
74 5 2 -0.0616365 0.342707 0.650259 0.126687
84 5 1 0.0622985 0.354208 0.650475 0.12717
82 5 2 -0.0543881 0.360927 0.67868 0.125711
90 5 1 0.0629322 0.385642 0.710032 0.125431
73 5 2 -0.0616365 0.371295 0.686323 0.1263
83 5 1 0.0622985 0.406184 0.715167 0.126446
490 28 2 -0.018412 0.295782 0.102463 0.160618
491 28 2 -0.0543881 0.302269 0.162785 0.16066
495 28 2 -0.018412 0.320665 0.064374 0.161048
500 28 1 0.0629322 0.282925 0.191694 0.160292
488 28 2 -0.0616365 0.258227 0.0174482 0.160122
496 28 2 -0.0543881 0.311248 0.00404372 0.161013
489 28 2 -0.0543881 0.26386 0.0775446 0.160167
498 28 1 0.0622985 0.232218 0.00343139 0.159719
499 28 1 0.0629322 0.241435 0.107226 0.159832
501 28 1 0.0622985 0.341873 0.237902 0.161066
492 28 2 -0.0616365 0.336788 0.189511 0.161096
502 28 1 0.0622985 0.387488 0.17255 0.161902
493 28 2 -0.0616365 0.359763 0.151077 0.161546
494 28 2 -0.0543881 0.353177 0.0892254 0.161514
503 28 1 0.0629322 0.376209 0.0616509 0.161853
487 28 2 -0.0616365 0.277748 0.981233 0.160557
497 28 1 0.0622985 0.268073 0.933107 0.160511
504 28 1 0.0629322 0.331936 0.976809 0.161374
831 47 2 -0.0543881 0.544657 0.464496 0.168205
832 47 2 -0.018412 0.546004 0.51725 0.168537
830 47 2 -0.0616365 0.593648 0.446959 0.167859
841 47 1 0.0629322 0.502457 0.437424 0.168234
837 47 2 -0.018412 0.59588 0.554629 0.168503
838 47 2 -0.0543881 0.642512 0.536144 0.168152
845 47 1 0.0629322 0.634863 0.639797 0.168746
840 47 1 0.0622985 0.589853 0.406308 0.167598
829 47 2 -0.0616365 0.642228 0.484437 0.167857
846 47 1 0.0629322 0.683224 0.563257 0.168124
839 47 1 0.0622985 0.682391 0.474826 0.167547
833 47 2 -0.0543881 0.496769 0.53559 0.168861
842 47 1 0.0629322 0.456591 0.508649 0.168878
834 47 2 -0.0616365 0.498217 0.587262 0.169172
835 47 2 -0.0616365 0.548012 0.622482 0.169149
836 47 2 -0.0543881 0.596721 0.607496 0.168794
844 47 1 0.0622985 0.543982 0.665541 0.169375
843 47 1 0.0622985 0.46056 0.603606 0.169424
242 14 2 -0.0543881 0.094295 0.883349 0.184421
243 14 2 -0.018412 0.0386898 0.909863 0.184368
244 14 2 -0.0543881 0.0208328 0.931132 0.183824
252 14 1 0.0629322 0.0487228 0.924169 0.183436
251 14 1 0.0629322 0.123774 0.878777 0.18402
245 14 1 0.0622985 0.947831 0.973033 0.183363
246 14 1 0.0622985 0.888291 0.987708 0.184308
235 14 2 -0.0616365 0.964818 0.95771 0.18379
236 14 2 -0.0616365 0.932127 0.965919 0.18429
250 14 1 0.0622985 0.155783 0.844886 0.185036
241 14 2 -0.0616365 0.113228 0.866322 0.184963
240 14 2 -0.0616365 0.078334 0.874598 0.185462
249 14 1 0.0622985 0.0913632 0.859433 0.185899
239 14 2 -0.0543881 0.0226857 0.898781 0.185419
238 14 2 -0.018412 0.00264931 0.917163 0.184865
237 14 2 -0.0543881 0.94936 0.945778 0.184825
248 14 1 0.0629322 0.997872 0.902118 0.185845
247 14 1 0.0629322 0.919665 0.95314 0.185212
414 23 1 0.0629322 0.664475 0.121074 0.225767
408 23 1 0.0622985 0.766022 0.2777 0.226003
399 23 2 -0.0543881 0.81674 0.200507 0.225708
400 23 2 -0.018412 0.81193 0.142174 0.225572
409 23 1 0.0629322 0.859913 0.225772 0.22568
401 23 2 -0.0543881 0.862027 0.110906 0.225402
398 23 2 -0.0616365 0.765426 0.231141 0.225852
397 23 2 -0.0616365 0.711403 0.204001 0.225859
407 23 1 0.0622985 0.671065 0.228301 0.225993
413 23 1 0.0629322 0.713035 0.0283773 0.225525
403 23 2 -0.0616365 0.805672 0.0226695 0.225302
404 23 2 -0.0543881 0.755952 0.0517962 0.225505
405 23 2 -0.018412 0.758438 0.111258 0.225613
406 23 2 -0.0543881 0.70864 0.143799 0.225763
410 23 1 0.0629322 0.904469 0.133032 0.225361
402 23 2 -0.0616365 0.859476 0.0527896 0.225251
411 23 1 0.0622985 0.90086 0.0281496 0.225146
412 23 1 0.0622985 0.806294 0.972013 0.225232
633 36 2 -0.0543881 0.858566 0.0267765 0.234207
632 36 2 -0.0616365 0.834494 0.0837048 0.234116
642 36 1 0.0622985 0.862626 0.123408 0.234041
643 36 1 0.0629322 0.908338 0.0194571 0.234222
640 36 2 -0.0543881 0.737355 0.0444725 0.234149
648 36 1 0.0629322 0.689452 0.056618 0.234085
641 36 1 0.0622985 0.757732 0.138093 0.234033
631 36 2 -0.0616365 0.774729 0.0931209 0.234106
635 36 2 -0.0543881 0.836497 0.922875 0.234314
634 36 2 -0.018412 0.8171 0.978317 0.23425
644 36 1 0.0629322 0.886449 0.91463 0.234339
647 36 1 0.0629322 0.669482 0.954553 0.234214
639 36 2 -0.018412 0.758397 0.989436 0.234235
638 36 2 -0.0543881 0.718897 0.943676 0.234252
646 36 1 0.0622985 0.706648 0.848051 0.234324
637 36 2 -0.0616365 0.739747 0.886198 0.23429
636 36 2 -0.0616365 0.799242 0.874385 0.234337
645 36 1 0.0622985 0.819009 0.827555 0.234363
48 3 1 0.0622985 0.643638 0.267722 0.251156
38 3 2 -0.0616365 0.6303 0.228054 0.251367
50 3 1 0.0629322 0.494907 0.128412 0.250816
41 3 2 -0.0543881 0.516098 0.113646 0.251231
49 3 1 0.0629322 0.558402 0.211747 0.250746
39 3 2 -0.0543881 0.581442 0.196922 0.251165
40 3 2 -0.018412 0.562884 0.147542 0.251469
51 3 1 0.0622985 0.463598 0.0340148 0.251283
42 3 2 -0.0616365 0.502185 0.0605982 0.251479
46 3 2 -0.0543881 0.647228 0.1599 0.252137
37 3 2 -0.0616365 0.661415 0.211602 0.251852
44 3 2 -0.0543881 0.580863 0.0723139 0.252192
45 3 2 -0.018412 0.596941 0.126479 0.251955
53 3 1 0.0629322 0.604862 0.0576241 0.252599
43 3 2 -0.0616365 0.53225 0.0407518 0.251965
52 3 1 0.0622985 0.518411 0.00166897 0.252207
47 3 1 0.0622985 0.700689 0.236885 0.252028
54 3 1 0.0629322 0.674727 0.139424 0.252481
848 48 2 -0.0616365 0.276568 0.243563 0.26644
847 48 2 -0.0616365 0.295081 0.277468 0.266927
857 48 1 0.0622985 0.262578 0.310245 0.267144
849 48 2 -0.0543881 0.316122 0.20358 0.266183
859 48 1 0.0629322 0.301507 0.177827 0.265799
858 48 1 0.0622985 0.231415 0.249699 0.266242
851 48 2 -0.0543881 0.41057 0.15756 0.266147
850 48 2 -0.018412 0.372411 0.198344 0.266403
852 48 2 -0.0616365 0.465532 0.152969 0.266396
853 48 2 -0.0616365 0.48586 0.188222 0.266854
862 48 1 0.0622985 0.532139 0.183654 0.267017
854 48 2 -0.0543881 0.448349 0.228545 0.267104
855 48 2 -0.018412 0.390882 0.233583 0.266888
863 48 1 0.0629322 0.467538 0.259529 0.26748
856 48 2 -0.0543881 0.351546 0.274038 0.267147
864 48 1 0.0629322 0.368311 0.30264 0.267503
861 48 1 0.0622985 0.497349 0.12208 0.266219
860 48 1 0.0629322 0.398702 0.123328 0.265829
453 26 2 -0.0543881 0.66513 0.0225698 0.279685
465 26 1 0.0622985 0.596511 0.216394 0.279886
455 26 2 -0.0543881 0.634356 0.125692 0.27981
456 26 2 -0.0616365 0.595664 0.167423 0.280034
454 26 2 -0.018412 0.628228 0.0666264 0.279928
464 26 1 0.0629322 0.670359 0.137389 0.279497
463 26 1 0.0629322 0.702388 0.0334817 0.279378
452 26 2 -0.0616365 0.655247 0.963915 0.2798
451 26 2 -0.0616365 0.613491 0.946704 0.280195
462 26 1 0.0622985 0.68702 0.929757 0.27961
457 26 2 -0.0616365 0.54984 0.149572 0.280406
458 26 2 -0.0543881 0.544809 0.0895907 0.280547
466 26 1 0.0622985 0.519156 0.179889 0.280619
467 26 1 0.0629322 0.508783 0.07483 0.280869
459 26 2 -0.018412 0.583071 0.0472163 0.280302
461 26 1 0.0622985 0.607574 0.899125 0.280282
460 26 2 -0.0543881 0.576185 0.98832 0.280461
468 26 1 0.0629322 0.539345 0.97283 0.280752
738 41 1 0.0629322 0.586921 0.226847 0.299044
737 41 1 0.0629322 0.691522 0.273587 0.299173
732 41 1 0.0622985 0.468147 0.234737 0.300537
733 41 1 0.0629322 0.54411 0.288684 0.301137
725 41 2 -0.0543881 0.651828 0.317669 0.300811
734 41 1 0.0629322 0.643068 0.328723 0.301294
722 41 2 -0.0616365 0.509914 0.247241 0.300353
723 41 2 -0.0543881 0.551869 0.277669 0.300675
724 41 2 -0.018412 0.607871 0.290188 0.300455
721 41 2 -0.0616365 0.523161 0.229189 0.299769
729 41 2 -0.018412 0.621999 0.272227 0.299873
730 41 2 -0.0543881 0.577908 0.240832 0.299548
731 41 1 0.0622985 0.486885 0.206211 0.299508
726 41 2 -0.0616365 0.707488 0.329745 0.300578
727 41 2 -0.0616365 0.718592 0.313679 0.300005
736 41 1 0.0622985 0.763858 0.319439 0.299789
728 41 2 -0.0543881 0.67736 0.287022 0.299662
735 41 1 0.0622985 0.74312 0.351934 0.300846
139 8 1 0.0629322 0.0877329 0.0335243 0.318195
138 8 1 0.0622985 0.987818 0.0602772 0.318098
129 8 2 -0.0543881 0.0607966 0.0366446 0.318632
130 8 2 -0.018412 0.0861532 0.0271793 0.319199
131 8 2 -0.0543881 0.14367 0.00445256 0.319249
133 8 2 -0.0616365 0.133163 0.00578839 0.320291
128 8 2 -0.0616365 0.00240596 0.0542629 0.318573
135 8 2 -0.018412 0.0497827 0.0348067 0.319699
134 8 2 -0.0543881 0.0756006 0.026319 0.320245
143 8 1 0.0629322 0.0515827 0.0344344 0.320684
144 8 1 0.0629322 0.963303 0.0603333 0.320011
136 8 2 -0.0543881 0.992999 0.0536641 0.319627
127 8 2 -0.0616365 0.968993 0.0638871 0.319084
137 8 1 0.0622985 0.920192 0.0827294 0.319054
132 8 2 -0.0616365 0.16735 0.995328 0.319794
140 8 1 0.0629322 0.172315 0.998066 0.318861
141 8 1 0.0622985 0.211113 0.978707 0.319823
142 8 1 0.0622985 0.153192 0.999242 0.32076
303 17 1 0.0622985 0.056975 0.917495 0.342292
306 17 1 0.0629322 0.293829 0.824415 0.342842
305 17 1 0.0629322 0.202372 0.861071 0.343376
289 17 2 -0.0616365 0.297546 0.811946 0.341921
298 17 2 -0.0543881 0.270661 0.831322 0.342428
290 17 2 -0.0616365 0.272557 0.821997 0.341372
300 17 1 0.0622985 0.29769 0.810625 0.340971
291 17 2 -0.0543881 0.216909 0.846734 0.341329
296 17 2 -0.0543881 0.182535 0.869412 0.342935
297 17 2 -0.018412 0.214186 0.856213 0.342418
292 17 2 -0.018412 0.18941 0.863312 0.341864
294 17 2 -0.0616365 0.101813 0.897213 0.342354
295 17 2 -0.0616365 0.125578 0.891864 0.34289
301 17 1 0.0629322 0.200708 0.85351 0.340867
293 17 2 -0.0543881 0.132447 0.886941 0.341835
302 17 1 0.0629322 0.108454 0.89596 0.341401
304 17 1 0.0622985 0.101267 0.908971 0.343276
299 17 1 0.0622985 0.342942 0.792762 0.341945
608 34 1 0.0629322 0.0185704 0.187978 0.359556
607 34 1 0.0629322 0.919292 0.237193 0.359676
611 34 1 0.0629322 0.0558028 0.223842 0.361673
610 34 1 0.0622985 0.126982 0.172124 0.36112
609 34 1 0.0622985 0.107048 0.150234 0.359987
599 34 2 -0.0543881 0.0261093 0.195858 0.360014
600 34 2 -0.0616365 0.0773603 0.172601 0.360288
601 34 2 -0.0616365 0.0870245 0.186274 0.360865
602 34 2 -0.0543881 0.0462807 0.215644 0.361195
605 34 1 0.0622985 0.869967 0.310915 0.361328
606 34 1 0.0622985 0.848955 0.283024 0.360271
595 34 2 -0.0616365 0.902409 0.285687 0.36107
612 34 1 0.0629322 0.96568 0.275812 0.361807
596 34 2 -0.0616365 0.89116 0.272477 0.3605
598 34 2 -0.018412 0.985652 0.225302 0.360365
603 34 2 -0.018412 0.995013 0.234708 0.360971
604 34 2 -0.0543881 0.955543 0.266085 0.361321
597 34 2 -0.0543881 0.930895 0.24361 0.360143
91 6 2 -0.0616365 0.585199 0.25239 0.370776
101 6 1 0.0622985 0.59192 0.219178 0.370406
100 6 2 -0.0543881 0.610506 0.242237 0.371316
92 6 2 -0.0616365 0.553862 0.303797 0.370684
102 6 1 0.0622985 0.53488 0.310715 0.370238
108 6 1 0.0629322 0.633546 0.199856 0.371397
99 6 2 -0.018412 0.606732 0.283991 0.37175
98 6 2 -0.0543881 0.634241 0.271376 0.372284
107 6 1 0.0629322 0.664101 0.231301 0.372339
103 6 1 0.0629322 0.530672 0.390323 0.370956
93 6 2 -0.0543881 0.551981 0.347905 0.371107
94 6 2 -0.018412 0.579278 0.338565 0.37166
95 6 2 -0.0543881 0.580387 0.3786 0.372081
104 6 1 0.0629322 0.563089 0.423407 0.371986
97 6 2 -0.0616365 0.632658 0.313863 0.372742
106 6 1 0.0622985 0.663603 0.30452 0.373139
96 6 2 -0.0616365 0.606174 0.36894 0.372641
105 6 1 0.0622985 0.611349 0.40627 0.372988
541 31 2 -0.0616365 0.822707 0.203222 0.410338
550 31 2 -0.0543881 0.787818 0.232327 0.410698
551 31 1 0.0622985 0.841689 0.160067 0.410518
542 31 2 -0.0616365 0.834146 0.22173 0.409759
543 31 2 -0.0543881 0.811181 0.274316 0.409567
552 31 1 0.0622985 0.866306 0.195695 0.409458
553 31 1 0.0629322 0.82107 0.290295 0.409109
544 31 2 -0.018412 0.773626 0.305862 0.409924
549 31 2 -0.018412 0.760693 0.284682 0.410507
546 31 2 -0.0616365 0.717423 0.390939 0.410134
547 31 2 -0.0616365 0.701357 0.367075 0.410701
555 31 1 0.0622985 0.695529 0.433443 0.41
545 31 2 -0.0543881 0.751091 0.360976 0.409749
554 31 1 0.0629322 0.76125 0.381522 0.409312
558 31 1 0.0629322 0.783952 0.21599 0.411154
548 31 2 -0.0543881 0.724422 0.314845 0.410869
557 31 1 0.0629322 0.712387 0.293518 0.411296
556 31 1 0.0622985 0.668763 0.390087 0.410991
789 44 1 0.0622985 0.488717 0.694541 0.423462
777 44 2 -0.0543881 0.593581 0.632217 0.425073
776 44 2 -0.0616365 0.615441 0.648346 0.425632
786 44 1 0.0622985 0.640309 0.614966 0.42589
787 44 1 0.0629322 0.600144 0.586623 0.4249
779 44 2 -0.0543881 0.538003 0.663133 0.424216
788 44 1 0.0629322 0.553617 0.61979 0.423964
791 44 1 0.0629322 0.500992 0.81409 0.424952
785 44 1 0.0622985 0.620073 0.706893 0.426376
792 44 1 0.0629322 0.558587 0.787838 0.425833
781 44 2 -0.0616365 0.496406 0.760181 0.424185
782 44 2 -0.0543881 0.514796 0.771493 0.424759
790 44 1 0.0622985 0.47228 0.794244 0.423898
780 44 2 -0.0616365 0.507009 0.705468 0.423925
775 44 2 -0.0616365 0.603195 0.702328 0.425889
783 44 2 -0.018412 0.549103 0.729081 0.425036
784 44 2 -0.0543881 0.569144 0.742179 0.4256
778 44 2 -0.018412 0.56079 0.673783 0.424773
218 13 2 -0.0616365 0.0366022 0.644319 0.440598
228 13 1 0.0622985 0.0781305 0.615617 0.440693
230 13 1 0.0629322 0.894909 0.657028 0.441673
219 13 2 -0.0543881 0.990092 0.64647 0.440992
229 13 1 0.0629322 0.991122 0.623051 0.441415
217 13 2 -0.0616365 0.0314678 0.670478 0.440053
227 13 1 0.0622985 0.0688058 0.670844 0.439745
221 13 2 -0.0543881 0.893633 0.681425 0.44124
222 13 2 -0.0616365 0.843798 0.712015 0.441097
231 13 1 0.0622985 0.806398 0.711101 0.441443
226 13 2 -0.0543881 0.981771 0.702426 0.439912
234 13 1 0.0629322 0.983975 0.727046 0.439494
225 13 2 -0.018412 0.935385 0.70661 0.440312
223 13 2 -0.0616365 0.839233 0.742461 0.440553
224 13 2 -0.0543881 0.884186 0.739993 0.440145
232 13 1 0.0622985 0.796458 0.766974 0.440447
233 13 1 0.0629322 0.878405 0.76543 0.439731
220 13 2 -0.018412 0.940021 0.677105 0.44085
349 20 2 -0.0616365 0.627532 0.578779 0.470143
350 20 2 -0.0543881 0.61057 0.63428 0.469924
359 20 1 0.0629322 0.572135 0.640177 0.469596
358 20 1 0.0622985 0.603852 0.537427 0.470036
348 20 2 -0.0616365 0.673994 0.575926 0.470553
357 20 1 0.0622985 0.688749 0.535917 0.470784
347 20 2 -0.0543881 0.702037 0.626677 0.470711
356 20 1 0.0629322 0.735411 0.621574 0.471087
353 20 1 0.0622985 0.642827 0.835387 0.469785
360 20 1 0.0629322 0.58992 0.738634 0.469511
343 20 2 -0.0616365 0.655302 0.791185 0.470006
351 20 2 -0.018412 0.641657 0.6852 0.470078
352 20 2 -0.0543881 0.626125 0.738507 0.469836
346 20 2 -0.018412 0.686103 0.681703 0.470493
355 20 1 0.0629322 0.75039 0.73015 0.471019
344 20 2 -0.0616365 0.699262 0.788638 0.470417
345 20 2 -0.0543881 0.716414 0.732612 0.470665
354 20 1 0.0622985 0.720678 0.829697 0.470564
695 39 1 0.0622985 0.768704 0.142797 0.489281
685 39 2 -0.0616365 0.806471 0.120159 0.489516
687 39 2 -0.0543881 0.846567 0.0309556 0.489912
691 39 2 -0.0616365 0.999668 0.122002 0.490381
702 39 1 0.0629322 0.859983 0.196753 0.489506
688 39 2 -0.018412 0.896408 0.0618028 0.490077
689 39 2 -0.0543881 0.942203 0.0317971 0.490376
692 39 2 -0.0543881 0.953318 0.152176 0.490144
693 39 2 -0.018412 0.90296 0.122033 0.489957
694 39 2 -0.0543881 0.85802 0.149453 0.489637
701 39 1 0.0629322 0.959176 0.201398 0.490042
686 39 2 -0.0616365 0.800355 0.0613169 0.489625
696 39 1 0.0622985 0.757835 0.0401032 0.489482
697 39 1 0.0629322 0.841935 0.983256 0.490014
699 39 1 0.0622985 0.0330703 0.0430793 0.490751
700 39 1 0.0622985 0.0407734 0.143042 0.490501
690 39 2 -0.0616365 0.993516 0.0622124 0.49052
698 39 1 0.0629322 0.940398 0.983896 0.490472
11 1 1 0.0622985 0.454339 0.236585 0.500319
2 1 2 -0.0616365 0.489319 0.32496 0.500533
1 1 2 -0.0616365 0.476038 0.266106 0.500663
10 1 2 -0.0543881 0.495801 0.244471 0.501199
18 1 1 0.0629322 0.487541 0.194465 0.501291
8 1 2 -0.0543881 0.538612 0.262914 0.502167
17 1 1 0.0629322 0.533017 0.214239 0.50229
7 1 2 -0.0616365 0.561822 0.299699 0.502604
16 1 1 0.0622985 0.566869 0.279161 0.503048
9 1 2 -0.018412 0.5233 0.283349 0.5016
12 1 1 0.0622985 0.478924 0.344756 0.500098
3 1 2 -0.0543881 0.519106 0.361999 0.500935
13 1 1 0.0629322 0.523732 0.40871 0.500767
14 1 1 0.0629322 0.574823 0.425985 0.501834
15 1 1 0.0622985 0.590323 0.392439 0.50281
4 1 2 -0.018412 0.535612 0.343658 0.501486
5 1 2 -0.0543881 0.561847 0.379387 0.501915
6 1 2 -0.0616365 0.574001 0.358807 0.502474
893 50 1 0.0622985 0.454347 0.225599 0.512437
900 50 1 0.0629322 0.535303 0.153884 0.51234
891 50 2 -0.018412 0.533124 0.122376 0.513239
884 50 2 -0.0616365 0.448835 0.211092 0.513365
894 50 1 0.0622985 0.413447 0.244109 0.513424
883 50 2 -0.0616365 0.471629 0.198843 0.512813
890 50 2 -0.0543881 0.578165 0.0798515 0.513217
892 50 2 -0.0543881 0.515029 0.155802 0.512769
899 50 1 0.0629322 0.602127 0.0704141 0.512793
898 50 1 0.0622985 0.630795 0.0200878 0.513749
887 50 2 -0.0543881 0.523376 0.108366 0.51429
888 50 2 -0.0616365 0.569938 0.0675181 0.514277
897 50 1 0.0622985 0.582415 0.0459219 0.514705
896 50 1 0.0629322 0.498958 0.113887 0.514717
886 50 2 -0.018412 0.506316 0.136566 0.513784
885 50 2 -0.0543881 0.463059 0.179298 0.513825
895 50 1 0.0629322 0.447651 0.188765 0.514288
889 50 2 -0.0616365 0.594638 0.0514522 0.51374
415 24 2 -0.0616365 0.573159 0.0548746 0.534313
425 24 1 0.0622985 0.537577 0.0203043 0.534279
416 24 2 -0.0616365 0.570461 0.10589 0.533962
417 24 2 -0.0543881 0.616576 0.14519 0.533962
418 24 2 -0.018412 0.662372 0.135748 0.534372
423 24 2 -0.018412 0.664515 0.0874124 0.534738
427 24 1 0.0629322 0.615551 0.183601 0.533666
424 24 2 -0.0543881 0.618228 0.0472836 0.53471
426 24 1 0.0622985 0.53192 0.113206 0.53365
420 24 2 -0.0616365 0.760198 0.164711 0.534737
419 24 2 -0.0543881 0.711989 0.173149 0.534373
428 24 1 0.0629322 0.709339 0.210869 0.534075
429 24 1 0.0622985 0.797455 0.198125 0.534712
432 24 1 0.0629322 0.617452 0.0098291 0.535035
431 24 1 0.0629322 0.705813 0.0423976 0.535433
421 24 2 -0.0616365 0.756969 0.117223 0.535142
422 24 2 -0.0543881 0.710782 0.0797544 0.535136
430 24 1 0.0622985 0.793434 0.109168 0.535465
759 43 2 -0.0543881 0.630366 0.245066 0.541058
769 43 1 0.0629322 0.586524 0.250974 0.540884
757 43 2 -0.0616365 0.731798 0.272771 0.541109
758 43 2 -0.0616365 0.677321 0.273923 0.540824
768 43 1 0.0622985 0.672041 0.302488 0.54043
767 43 1 0.0622985 0.773291 0.297111 0.540978
760 43 2 -0.018412 0.637033 0.213858 0.541591
772 43 1 0.0622985 0.646124 0.136943 0.543154
761 43 2 -0.0543881 0.589977 0.17806 0.541799
762 43 2 -0.0616365 0.593316 0.150736 0.542333
763 43 2 -0.0616365 0.643827 0.156324 0.542667
771 43 1 0.0622985 0.554091 0.125018 0.542567
770 43 1 0.0629322 0.545984 0.17596 0.541577
773 43 1 0.0629322 0.727725 0.19291 0.54275
764 43 2 -0.0543881 0.691912 0.1888 0.542455
765 43 2 -0.018412 0.691387 0.215963 0.541911
766 43 2 -0.0543881 0.735358 0.245437 0.541664
774 43 1 0.0629322 0.779023 0.246049 0.541934
175 10 1 0.0629322 0.300696 0.787062 0.556475
164 10 2 -0.0616365 0.313633 0.740991 0.555633
174 10 1 0.0622985 0.265388 0.732018 0.555618
173 10 1 0.0622985 0.331154 0.692298 0.554832
171 10 2 -0.018412 0.431471 0.751515 0.555784
166 10 2 -0.018412 0.392757 0.775824 0.556205
163 10 2 -0.0616365 0.350371 0.716746 0.555207
172 10 2 -0.0543881 0.411627 0.723689 0.555281
165 10 2 -0.0543881 0.333603 0.770553 0.556132
180 10 1 0.0629322 0.44159 0.704122 0.554958
178 10 1 0.0622985 0.561215 0.780154 0.55646
179 10 1 0.0629322 0.524404 0.739072 0.555528
169 10 2 -0.0616365 0.513845 0.777603 0.556389
168 10 2 -0.0616365 0.476218 0.806303 0.556778
177 10 1 0.0622985 0.497981 0.831631 0.557134
170 10 2 -0.0543881 0.492892 0.753355 0.555862
167 10 2 -0.0543881 0.417083 0.803107 0.556703
176 10 1 0.0629322 0.387557 0.827929 0.557029
342 19 1 0.0629322 0.477914 0.0834595 0.585672
341 19 1 0.0629322 0.520295 0.17898 0.585649
333 19 2 -0.018412 0.546873 0.112744 0.586285
334 19 2 -0.0543881 0.506145 0.0718565 0.586066
327 19 2 -0.0543881 0.575978 0.042412 0.587042
328 19 2 -0.018412 0.581247 0.098489 0.586777
337 19 1 0.0629322 0.599594 0.0352594 0.587478
325 19 2 -0.0616365 0.503633 0.0158192 0.58631
326 19 2 -0.0616365 0.537154 0.00128758 0.586801
340 19 1 0.0622985 0.594684 0.253416 0.58601
332 19 2 -0.0543881 0.550784 0.166741 0.586021
330 19 2 -0.0616365 0.625444 0.19402 0.586731
331 19 2 -0.0616365 0.590988 0.208317 0.58622
329 19 2 -0.0543881 0.620818 0.139575 0.587009
338 19 1 0.0629322 0.649389 0.132464 0.587407
339 19 1 0.0622985 0.65751 0.228714 0.586885
335 19 1 0.0622985 0.472476 0.9813 0.586114
336 19 1 0.0622985 0.533134 0.958401 0.587056
576 32 1 0.0629322 0.629985 0.649527 0.612647
568 32 2 -0.0543881 0.587176 0.662561 0.612883
559 32 2 -0.0616365 0.534484 0.665658 0.612571
569 32 1 0.0622985 0.528393 0.653384 0.6121
575 32 1 0.0629322 0.680829 0.648216 0.613555
570 32 1 0.0622985 0.439379 0.693239 0.612696
564 32 2 -0.0616365 0.598644 0.714553 0.614631
565 32 2 -0.0616365 0.646312 0.690371 0.614344
567 32 2 -0.018412 0.590085 0.678908 0.613461
566 32 2 -0.0543881 0.642792 0.67187 0.613766
561 32 2 -0.0543881 0.486932 0.704723 0.613452
571 32 1 0.0629322 0.44363 0.716959 0.613672
560 32 2 -0.0616365 0.485161 0.688061 0.612867
572 32 1 0.0629322 0.505466 0.739701 0.614534
562 32 2 -0.018412 0.541225 0.702688 0.613735
563 32 2 -0.0543881 0.546107 0.720675 0.614316
574 32 1 0.0622985 0.688907 0.679371 0.614583
573 32 1 0.0622985 0.604174 0.727657 0.615089
69 4 1 0.0622985 0.916982 0.725132 0.62096
70 4 1 0.0622985 0.814014 0.6977 0.621212
71 4 1 0.0629322 0.768964 0.740167 0.622182
58 4 2 -0.018412 0.903811 0.79913 0.622283
63 4 2 -0.018412 0.847732 0.783017 0.622446
64 4 2 -0.0543881 0.822479 0.806099 0.622946
59 4 2 -0.0543881 0.927732 0.778132 0.621752
56 4 2 -0.0616365 0.911784 0.861172 0.623151
66 4 1 0.0622985 0.935717 0.891594 0.623443
57 4 2 -0.0543881 0.936192 0.838166 0.622633
67 4 1 0.0629322 0.982323 0.853977 0.622504
68 4 1 0.0629322 0.97389 0.792423 0.621605
55 4 2 -0.0616365 0.854574 0.844372 0.623295
61 4 2 -0.0616365 0.840121 0.725289 0.621537
62 4 2 -0.0543881 0.817218 0.746891 0.622065
60 4 2 -0.0616365 0.896948 0.739961 0.621387
72 4 1 0.0629322 0.775017 0.796032 0.623054
65 4 1 0.0622985 0.834894 0.861343 0.623703
814 46 2 -0.018412 0.445152 0.63644 0.665177
815 46 2 -0.0543881 0.403531 0.592437 0.665293
824 46 1 0.0629322 0.384374 0.566914 0.664902
813 46 2 -0.0543881 0.461598 0.651712 0.664598
823 46 1 0.0629322 0.444226 0.624497 0.664227
811 46 2 -0.0616365 0.530068 0.723615 0.664948
812 46 2 -0.0616365 0.502805 0.694152 0.664491
820 46 2 -0.0543881 0.512881 0.71072 0.665514
821 46 1 0.0622985 0.565042 0.75459 0.664858
822 46 1 0.0622985 0.515462 0.704788 0.664038
505 29 2 -0.0616365 0.301968 0.25491 0.66695
518 29 1 0.0629322 0.108237 0.30782 0.667631
509 29 2 -0.0543881 0.148443 0.333209 0.667522
507 29 2 -0.0543881 0.200993 0.247678 0.66724
517 29 1 0.0629322 0.163785 0.219093 0.667395
508 29 2 -0.018412 0.198339 0.307109 0.667313
514 29 2 -0.0543881 0.299507 0.313294 0.667038
506 29 2 -0.0616365 0.252423 0.221053 0.667085
516 29 1 0.0622985 0.253019 0.170736 0.667055
515 29 1 0.0622985 0.345616 0.238647 0.666799
519 29 1 0.0622985 0.102746 0.412453 0.66784
510 29 2 -0.0616365 0.14532 0.393232 0.66767
511 29 2 -0.0616365 0.194771 0.425722 0.667579
520 29 1 0.0622985 0.194137 0.474641 0.667686
512 29 2 -0.0543881 0.246586 0.400425 0.667359
513 29 2 -0.018412 0.248101 0.340776 0.66724
521 29 1 0.0629322 0.285976 0.429802 0.667319
522 29 1 0.0629322 0.339791 0.341333 0.666941
826 46 1 0.0622985 0.406317 0.599383 0.66684
816 46 2 -0.0616365 0.390867 0.576696 0.665876
818 46 2 -0.0543881 0.458311 0.649732 0.666222
825 46 1 0.0622985 0.358714 0.53899 0.665979
819 46 2 -0.018412 0.471762 0.664523 0.665642
817 46 2 -0.0616365 0.417899 0.606098 0.666345
828 46 1 0.0629322 0.535626 0.73265 0.665863
827 46 1 0.0629322 0.481136 0.673152 0.666597
260 15 2 -0.0543881 0.325325 0.0963533 0.687379
269 15 1 0.0629322 0.276595 0.0968584 0.687324
257 15 2 -0.0543881 0.446143 0.0911326 0.687522
261 15 2 -0.018412 0.350836 0.122096 0.687852
258 15 2 -0.0616365 0.420437 0.0632356 0.687045
267 15 1 0.0622985 0.446518 0.0385669 0.686715
266 15 1 0.0629322 0.494477 0.0904067 0.687573
268 15 1 0.0622985 0.340014 0.0444212 0.686578
259 15 2 -0.0616365 0.3603 0.0665621 0.686972
262 15 2 -0.0543881 0.315885 0.153715 0.688261
263 15 1 0.0622985 0.315178 0.20311 0.689113
270 15 1 0.0629322 0.266507 0.158207 0.6882
256 15 2 -0.018412 0.411925 0.120167 0.687928
265 15 1 0.0629322 0.486331 0.148553 0.688419
254 15 2 -0.0616365 0.404999 0.177656 0.688812
255 15 2 -0.0543881 0.438435 0.149379 0.688396
264 15 1 0.0622985 0.426018 0.199762 0.68922
253 15 2 -0.0616365 0.343386 0.179676 0.68875
393 22 1 0.0622985 0.655013 0.484748 0.709435
392 22 1 0.0629322 0.558108 0.47329 0.709931
383 22 2 -0.0543881 0.562873 0.509881 0.709602
384 22 2 -0.0616365 0.618616 0.51894 0.709359
380 22 2 -0.0616365 0.415743 0.57655 0.709615
390 22 1 0.0622985 0.371781 0.575482 0.709876
379 22 2 -0.0616365 0.4216 0.620994 0.709213
389 22 1 0.0622985 0.387012 0.656168 0.709139
382 22 2 -0.018412 0.516346 0.54578 0.709491
381 22 2 -0.0543881 0.461953 0.538503 0.709754
391 22 1 0.0629322 0.457456 0.505051 0.710091
385 22 2 -0.0616365 0.624192 0.566255 0.708997
387 22 2 -0.018412 0.521269 0.591966 0.709093
388 22 2 -0.0543881 0.475442 0.629385 0.708948
386 22 2 -0.0543881 0.577279 0.602809 0.708856