ITEM: TIMESTEP
0
ITEM: NUMBER OF ATOMS
900
ITEM: BOX BOUNDS pp pp pp
0.0000000000000000e+00 2.1989592999999999e+01
0.0000000000000000e+00 2.1989592999999999e+01
1.0864848495000001e+03 1.1124744424999999e+03
ITEM: ATOMS id mol type q xs ys zs
840 47 1 0.0622985 0.239132 0.0128908 0.11573
501 28 1 0.0622985 0.203124 0.201018 0.0906144
830 47 2 -0.0616365 0.204682 0.0159939 0.144111
831 47 2 -0.0543881 0.144273 0.00946576 0.128358
492 28 2 -0.0616365 0.189772 0.191853 0.126881
502 28 1 0.0622985 0.278797 0.153383 0.145301
493 28 2 -0.0616365 0.233424 0.170186 0.157922
494 28 2 -0.0543881 0.218428 0.162657 0.205883
503 28 1 0.0629322 0.25025 0.147129 0.232979
841 47 1 0.0629322 0.132623 0.00123126 0.0913994
829 47 2 -0.0616365 0.216799 0.0236309 0.190618
490 28 2 -0.018412 0.116803 0.192873 0.18905
495 28 2 -0.018412 0.160213 0.175686 0.222297
491 28 2 -0.0543881 0.133092 0.202261 0.142333
837 47 2 -0.018412 0.114546 0.0164433 0.211886
832 47 2 -0.018412 0.0989837 0.0119711 0.162454
833 47 2 -0.0543881 0.0411924 0.0022402 0.149431
500 28 1 0.0629322 0.101753 0.217953 0.112575
607 34 1 0.0629322 0.257339 0.330421 0.16798
838 47 2 -0.0543881 0.171076 0.0238714 0.225199
846 47 1 0.0629322 0.181315 0.0328312 0.265225
487 28 2 -0.0616365 0.0883898 0.167492 0.283498
496 28 2 -0.0543881 0.145137 0.166918 0.270625
504 28 1 0.0629322 0.180126 0.153509 0.296484
836 47 2 -0.0543881 0.0700402 0.0165438 0.245332
835 47 2 -0.0616365 0.0116641 0.0057569 0.234499
608 34 1 0.0629322 0.260948 0.303086 0.256776
497 28 1 0.0622985 0.0802238 0.160142 0.323731
488 28 2 -0.0616365 0.0419726 0.181035 0.251373
489 28 2 -0.0543881 0.0574621 0.197545 0.203978
499 28 1 0.0629322 0.0208403 0.213873 0.1805
599 34 2 -0.0543881 0.209827 0.311429 0.257386
845 47 1 0.0629322 0.0822659 0.0187429 0.284688
839 47 1 0.0622985 0.262844 0.0327052 0.203129
598 34 2 -0.018412 0.178801 0.332085 0.217122
600 34 2 -0.0616365 0.180577 0.299943 0.299314
601 34 2 -0.0616365 0.117995 0.307548 0.300112
602 34 2 -0.0543881 0.0894758 0.328533 0.259085
611 34 1 0.0629322 0.0408284 0.331248 0.260893
859 48 1 0.0629322 0.313188 0.077523 0.288789
609 34 1 0.0622985 0.202329 0.285298 0.331645
752 42 1 0.0629322 0.412053 0.307118 0.070039
411 23 1 0.0622985 0.553716 0.275048 0.17058
744 42 2 -0.0616365 0.410918 0.260252 0.137989
753 42 1 0.0622985 0.413403 0.217181 0.117428
754 42 1 0.0622985 0.41068 0.22428 0.209855
410 23 1 0.0629322 0.585136 0.203015 0.232944
402 23 2 -0.0616365 0.565522 0.290527 0.207741
401 23 2 -0.0543881 0.583778 0.25276 0.243178
745 42 2 -0.0616365 0.40355 0.26461 0.186095
743 42 2 -0.0543881 0.405482 0.308757 0.108553
746 42 2 -0.0543881 0.392377 0.320374 0.207096
755 42 1 0.0629322 0.389642 0.323239 0.24694
318 18 1 0.0622985 0.460465 0.215507 0.282813
317 18 1 0.0622985 0.349658 0.203275 0.273469
857 48 1 0.0622985 0.50456 0.0488536 0.278187
858 48 1 0.0622985 0.40705 0.0687143 0.235876
848 48 2 -0.0616365 0.408145 0.0673347 0.276571
847 48 2 -0.0616365 0.462132 0.0573304 0.299431
308 18 2 -0.0616365 0.429975 0.218985 0.312509
307 18 2 -0.0616365 0.369881 0.212323 0.307937
405 23 2 -0.018412 0.593909 0.331843 0.302181
400 23 2 -0.018412 0.598725 0.27212 0.288594
399 23 2 -0.0543881 0.61659 0.234376 0.324612
409 23 1 0.0629322 0.618059 0.18353 0.314887
849 48 2 -0.0543881 0.356976 0.0734539 0.306204
498 28 1 0.0622985 0.991823 0.182542 0.259999
844 47 1 0.0622985 0.977917 0.0077982 0.261285
233 13 1 0.0629322 0.949578 0.277544 0.215266
231 13 1 0.0622985 0.804612 0.283504 0.112696
790 44 1 0.0622985 0.942385 0.143034 0.113862
789 44 1 0.0622985 0.843582 0.141179 0.07491
780 44 2 -0.0616365 0.846776 0.127232 0.111738
781 44 2 -0.0616365 0.90107 0.127187 0.135181
223 13 2 -0.0616365 0.882729 0.281362 0.159966
222 13 2 -0.0616365 0.820947 0.274575 0.150534
788 44 1 0.0629322 0.750141 0.115095 0.120151
779 44 2 -0.0543881 0.79517 0.11374 0.137658
787 44 1 0.0629322 0.701686 0.0789883 0.192694
234 13 1 0.0629322 0.928972 0.251537 0.303014
224 13 2 -0.0543881 0.901284 0.269702 0.206275
226 13 2 -0.0543881 0.883378 0.24637 0.292119
217 13 2 -0.0616365 0.844088 0.229304 0.326041
791 44 1 0.0629322 0.945852 0.113135 0.199524
782 44 2 -0.0543881 0.902676 0.110423 0.182705
230 13 1 0.0629322 0.736268 0.251417 0.178366
783 44 2 -0.018412 0.851359 0.0961349 0.20784
778 44 2 -0.018412 0.796959 0.0963704 0.18471
221 13 2 -0.0543881 0.783168 0.260374 0.186702
792 44 1 0.0629322 0.898237 0.084131 0.275154
225 13 2 -0.018412 0.862501 0.255822 0.244402
784 44 2 -0.0543881 0.854406 0.0837547 0.256397
777 44 2 -0.0543881 0.746526 0.0802233 0.210583
220 13 2 -0.018412 0.803153 0.249469 0.233882
219 13 2 -0.0543881 0.765907 0.232085 0.270177
229 13 1 0.0629322 0.718399 0.22569 0.263559
218 13 2 -0.0616365 0.785043 0.224059 0.315971
232 13 1 0.0622985 0.912678 0.300725 0.13268
785 44 1 0.0622985 0.808825 0.0596835 0.322975
775 44 2 -0.0616365 0.803856 0.0694337 0.282309
776 44 2 -0.0616365 0.748219 0.0703036 0.259975
786 44 1 0.0622985 0.708805 0.0614017 0.283039
596 34 2 -0.0616365 0.178005 0.359339 0.131616
606 34 1 0.0622985 0.202591 0.36618 0.0988127
597 34 2 -0.0543881 0.209985 0.339277 0.171529
99 6 2 -0.018412 0.0626171 0.573772 0.208241
98 6 2 -0.0543881 0.0337889 0.521982 0.191037
594 33 1 0.0629322 0.175789 0.584665 0.0753602
585 33 2 -0.018412 0.218621 0.62394 0.135432
586 33 2 -0.0543881 0.191873 0.575674 0.111069
587 33 1 0.0622985 0.175411 0.482719 0.111997
577 33 2 -0.0616365 0.195073 0.520505 0.132037
605 34 1 0.0622985 0.093778 0.382139 0.0997695
578 33 2 -0.0616365 0.210894 0.511726 0.18124
580 33 2 -0.018412 0.237624 0.613752 0.183621
579 33 2 -0.0543881 0.233565 0.557466 0.207614
588 33 1 0.0622985 0.20354 0.468985 0.19861
589 33 1 0.0629322 0.25038 0.550595 0.245394
581 33 2 -0.0543881 0.261593 0.659901 0.209493
604 34 2 -0.0543881 0.0892076 0.362117 0.174657
595 34 2 -0.0616365 0.118771 0.371107 0.132966
612 34 1 0.0629322 0.0394523 0.371706 0.173438
248 14 1 0.0629322 0.284221 0.408206 0.282556
590 33 1 0.0629322 0.278782 0.649679 0.245987
94 6 2 -0.018412 0.057907 0.626629 0.182675
249 14 1 0.0622985 0.187653 0.457244 0.281986
603 34 2 -0.018412 0.119483 0.341314 0.215844
100 6 2 -0.0543881 0.0986126 0.573378 0.247804
108 6 1 0.0629322 0.109225 0.532647 0.267278
101 6 1 0.0622985 0.15323 0.618869 0.299063
91 6 2 -0.0616365 0.123635 0.62229 0.267053
240 14 2 -0.0616365 0.212707 0.453529 0.316254
239 14 2 -0.0543881 0.265942 0.426658 0.31587
301 17 1 0.0629322 0.319136 0.575622 0.305439
97 6 2 -0.0616365 0.00148702 0.524048 0.148952
107 6 1 0.0629322 0.0389176 0.481946 0.211753
95 6 2 -0.0543881 0.0263082 0.627543 0.142038
412 23 1 0.0622985 0.537142 0.38034 0.197222
403 23 2 -0.0616365 0.556971 0.348813 0.221611
404 23 2 -0.0543881 0.57124 0.370087 0.266045
413 23 1 0.0629322 0.565482 0.417483 0.275477
751 42 1 0.0629322 0.39514 0.408863 0.0516821
741 42 2 -0.0543881 0.390116 0.415064 0.0930349
750 42 1 0.0622985 0.37377 0.506627 0.0876954
742 42 2 -0.018412 0.395694 0.365336 0.125709
747 42 2 -0.018412 0.388861 0.371557 0.175826
748 42 2 -0.0543881 0.379625 0.42668 0.193369
756 42 1 0.0629322 0.371991 0.435313 0.231902
739 42 2 -0.0616365 0.372551 0.474461 0.162125
740 42 2 -0.0616365 0.374358 0.467994 0.112774
136 8 2 -0.0543881 0.654194 0.568383 0.0887454
749 42 1 0.0622985 0.364063 0.518105 0.176205
144 8 1 0.0629322 0.629428 0.575228 0.0536233
143 8 1 0.0629322 0.537455 0.539887 0.0938881
135 8 2 -0.018412 0.620544 0.556312 0.130289
134 8 2 -0.0543881 0.560344 0.545505 0.127256
133 8 2 -0.0616365 0.528946 0.541455 0.171573
192 11 1 0.0622985 0.408431 0.631582 0.163871
132 8 2 -0.0616365 0.560036 0.543949 0.215899
141 8 1 0.0622985 0.533956 0.545632 0.249267
191 11 1 0.0622985 0.429263 0.654719 0.0770856
290 17 2 -0.0616365 0.413523 0.554542 0.319975
300 17 1 0.0622985 0.420917 0.544283 0.280346
247 14 1 0.0629322 0.371867 0.381668 0.317469
291 17 2 -0.0543881 0.355022 0.571086 0.32976
142 8 1 0.0622985 0.4796 0.539131 0.170985
130 8 2 -0.018412 0.65221 0.555599 0.173226
140 8 1 0.0629322 0.644563 0.552989 0.252309
131 8 2 -0.0543881 0.621851 0.550003 0.21553
443 25 1 0.0622985 0.577714 0.652486 0.187413
127 8 2 -0.0616365 0.71319 0.580529 0.0909288
129 8 2 -0.0543881 0.712782 0.56134 0.17477
128 8 2 -0.0616365 0.743743 0.57253 0.132818
138 8 1 0.0622985 0.792373 0.577292 0.13082
139 8 1 0.0629322 0.737985 0.554549 0.210566
736 41 1 0.0622985 0.747438 0.446134 0.168306
11 1 1 0.0622985 0.719629 0.583594 0.330285
106 6 1 0.0622985 0.979398 0.486761 0.133097
735 41 1 0.0622985 0.683802 0.412161 0.23417
730 41 2 -0.0543881 0.917092 0.441676 0.256903
738 41 1 0.0629322 0.940094 0.452048 0.22392
729 41 2 -0.018412 0.856112 0.435623 0.251799
726 41 2 -0.0616365 0.734485 0.418173 0.241608
727 41 2 -0.0616365 0.768128 0.437652 0.202749
728 41 2 -0.0543881 0.827729 0.445234 0.207883
737 41 1 0.0629322 0.854296 0.460968 0.177792
96 6 2 -0.0616365 0.998391 0.57651 0.123646
893 50 1 0.0622985 0.947959 0.627823 0.287667
894 50 1 0.0622985 0.845269 0.622608 0.322749
137 8 1 0.0622985 0.738829 0.594265 0.0578435
551 31 1 0.0622985 0.892838 0.650945 0.183752
105 6 1 0.0622985 0.974514 0.583357 0.0883193
552 31 1 0.0622985 0.793885 0.642486 0.220785
884 50 2 -0.0616365 0.867133 0.666345 0.319283
731 41 1 0.0622985 0.998371 0.433661 0.301348
721 41 2 -0.0616365 0.946273 0.430339 0.299982
724 41 2 -0.018412 0.822517 0.419399 0.292383
734 41 1 0.0629322 0.739534 0.394403 0.318265
725 41 2 -0.0543881 0.762442 0.410447 0.286317
842 47 1 0.0629322 0.0202073 0.99916 0.111576
584 33 2 -0.0543881 0.226453 0.679542 0.113599
593 33 1 0.0629322 0.21006 0.691343 0.0780124
83 5 1 0.0622985 0.0427308 0.835228 0.135694
73 5 2 -0.0616365 0.0853779 0.84535 0.1569
74 5 2 -0.0616365 0.137938 0.853094 0.131767
84 5 1 0.0622985 0.135682 0.851405 0.0892671
582 33 2 -0.0616365 0.270824 0.714141 0.189499
75 5 2 -0.0543881 0.189857 0.866 0.15666
85 5 1 0.0629322 0.22901 0.872955 0.133492
90 5 1 0.0629322 0.0456613 0.836063 0.229021
82 5 2 -0.0543881 0.0861834 0.847755 0.207442
81 5 2 -0.018412 0.136199 0.861661 0.234486
76 5 2 -0.018412 0.188719 0.870521 0.207648
77 5 2 -0.0543881 0.239773 0.883559 0.233653
86 5 1 0.0629322 0.282279 0.891415 0.214399
592 33 1 0.0622985 0.256538 0.77238 0.126012
583 33 2 -0.0616365 0.250152 0.72521 0.141812
78 5 2 -0.0616365 0.238336 0.894716 0.283379
591 33 1 0.0622985 0.289356 0.750558 0.208742
103 6 1 0.0629322 0.0816193 0.721031 0.181131
92 6 2 -0.0616365 0.122341 0.675802 0.24186
93 6 2 -0.0543881 0.0855766 0.678031 0.200132
102 6 1 0.0622985 0.14681 0.716637 0.252447
104 6 1 0.0629322 0.0260842 0.670617 0.121792
80 5 2 -0.0543881 0.136815 0.867962 0.284393
87 5 1 0.0622985 0.279619 0.907731 0.303474
89 5 1 0.0629322 0.0921537 0.866027 0.301068
79 5 2 -0.0616365 0.185252 0.884972 0.309111
465 26 1 0.0622985 0.249668 0.783132 0.329783
899 50 1 0.0629322 0.00376309 0.827064 0.297078
182 11 2 -0.0616365 0.416426 0.677027 0.15335
181 11 2 -0.0616365 0.425552 0.688635 0.105937
448 25 1 0.0622985 0.576846 0.946025 0.142302
642 36 1 0.0622985 0.660478 0.797059 0.0876506
195 11 1 0.0622985 0.402609 0.915182 0.224174
196 11 1 0.0622985 0.41265 0.941727 0.142049
439 25 2 -0.0616365 0.583824 0.908556 0.167096
186 11 2 -0.0616365 0.410059 0.880612 0.197987
187 11 2 -0.0616365 0.417703 0.893221 0.149546
194 11 1 0.0629322 0.415873 0.809449 0.250248
184 11 2 -0.018412 0.424543 0.779458 0.17795
185 11 2 -0.0543881 0.416945 0.822234 0.211678
189 11 2 -0.018412 0.430893 0.790715 0.130328
190 11 2 -0.0543881 0.432557 0.747578 0.0949567
193 11 1 0.0629322 0.405506 0.710359 0.226541
183 11 2 -0.0543881 0.415413 0.720291 0.188727
198 11 1 0.0629322 0.438515 0.76095 0.0579695
188 11 2 -0.0543881 0.427501 0.84837 0.116371
197 11 1 0.0629322 0.433045 0.862613 0.0811452
436 25 2 -0.018412 0.594937 0.815981 0.231764
435 25 2 -0.0543881 0.608792 0.769528 0.263395
434 25 2 -0.0616365 0.601818 0.710871 0.246926
444 25 1 0.0622985 0.608977 0.673045 0.275112
440 25 2 -0.0543881 0.577285 0.84952 0.152369
449 25 1 0.0629322 0.564126 0.839888 0.116527
441 25 2 -0.018412 0.580185 0.801886 0.182312
442 25 2 -0.0543881 0.572319 0.743748 0.169275
450 25 1 0.0629322 0.562846 0.732823 0.130802
433 25 2 -0.0616365 0.581138 0.697136 0.199742
438 25 2 -0.0616365 0.595816 0.922124 0.215627
445 25 1 0.0629322 0.623075 0.775523 0.30163
437 25 2 -0.0543881 0.601061 0.875765 0.24627
464 26 1 0.0629322 0.337003 0.745573 0.291929
463 26 1 0.0629322 0.44722 0.711614 0.302785
447 25 1 0.0622985 0.599884 0.971987 0.229546
446 25 1 0.0629322 0.613452 0.887025 0.284228
54 3 1 0.0629322 0.478136 0.87661 0.32834
455 26 2 -0.0543881 0.33952 0.746551 0.333068
834 47 2 -0.0616365 0.997563 0.998183 0.186002
843 47 1 0.0622985 0.949148 0.994458 0.178129
644 36 1 0.0629322 0.797903 0.954949 0.0769233
645 36 1 0.0622985 0.907211 0.959088 0.0708529
636 36 2 -0.0616365 0.885777 0.917389 0.0698991
635 36 2 -0.0543881 0.826754 0.913372 0.0741865
643 36 1 0.0629322 0.711 0.894281 0.0786776
633 36 2 -0.0543881 0.737068 0.854795 0.0786353
646 36 1 0.0622985 0.969531 0.871871 0.0650933
637 36 2 -0.0616365 0.919952 0.868445 0.0685556
634 36 2 -0.018412 0.79796 0.860227 0.0757736
647 36 1 0.0629322 0.920831 0.769069 0.0720196
638 36 2 -0.0543881 0.893857 0.8128 0.0725269
648 36 1 0.0629322 0.831416 0.7126 0.0795547
639 36 2 -0.018412 0.83263 0.808402 0.0746547
640 36 2 -0.0543881 0.803319 0.754058 0.0783301
631 36 2 -0.0616365 0.741895 0.748688 0.082717
641 36 1 0.0622985 0.719328 0.705163 0.0872985
632 36 2 -0.0616365 0.708742 0.799932 0.0824989
558 31 1 0.0629322 0.935559 0.74991 0.172927
556 31 1 0.0622985 0.871793 0.948769 0.193422
557 31 1 0.0629322 0.93084 0.859528 0.177593
547 31 2 -0.0616365 0.85313 0.904346 0.201058
548 31 2 -0.0543881 0.88604 0.854108 0.192636
555 31 1 0.0622985 0.770342 0.943362 0.220868
542 31 2 -0.0616365 0.812768 0.683947 0.213245
541 31 2 -0.0616365 0.868978 0.691136 0.195041
550 31 2 -0.0543881 0.892026 0.747637 0.187419
543 31 2 -0.0543881 0.780248 0.736373 0.224362
549 31 2 -0.018412 0.860517 0.799291 0.199731
546 31 2 -0.0616365 0.796001 0.900456 0.216019
544 31 2 -0.018412 0.803544 0.794795 0.218531
553 31 1 0.0629322 0.734399 0.730341 0.239437
545 31 2 -0.0543881 0.770361 0.845826 0.226514
554 31 1 0.0629322 0.72433 0.842128 0.240827
900 50 1 0.0629322 0.999382 0.722309 0.2834
883 50 2 -0.0616365 0.923648 0.668555 0.300564
898 50 1 0.0622985 0.959828 0.919785 0.325749
889 50 2 -0.0616365 0.932575 0.879553 0.32788
890 50 2 -0.0543881 0.958537 0.825993 0.312361
892 50 2 -0.0543881 0.953054 0.721192 0.298985
891 50 2 -0.018412 0.927529 0.773575 0.313926
886 50 2 -0.018412 0.869353 0.773004 0.333021
335 19 1 0.0622985 0.103175 0.0590178 0.363099
342 19 1 0.0629322 0.00164003 0.0939796 0.364197
325 19 2 -0.0616365 0.070583 0.0385638 0.390252
334 19 2 -0.0543881 0.0137142 0.0619459 0.390439
63 4 2 -0.018412 0.0310868 0.203204 0.443779
62 4 2 -0.0543881 0.0884853 0.197782 0.421513
71 4 1 0.0629322 0.0992189 0.218461 0.384859
58 4 2 -0.018412 0.0220051 0.18058 0.491623
323 18 1 0.0629322 0.272411 0.212081 0.43262
61 4 2 -0.0616365 0.134018 0.170435 0.446668
70 4 1 0.0622985 0.179254 0.165126 0.430613
324 18 1 0.0629322 0.284648 0.207805 0.344159
860 48 1 0.0629322 0.272354 0.0899713 0.369747
322 18 1 0.0622985 0.312324 0.233006 0.511728
257 15 2 -0.0543881 0.180868 0.296227 0.489884
266 15 1 0.0629322 0.217155 0.269959 0.504297
256 15 2 -0.018412 0.131226 0.303065 0.518035
255 15 2 -0.0543881 0.128089 0.276979 0.562462
265 15 1 0.0629322 0.164876 0.253516 0.578973
180 10 1 0.0629322 0.238407 0.239019 0.662312
60 4 2 -0.0616365 0.12389 0.146104 0.492963
69 4 1 0.0622985 0.158051 0.119947 0.513296
254 15 2 -0.0616365 0.078909 0.284488 0.591277
264 15 1 0.0622985 0.0786588 0.263027 0.627658
59 4 2 -0.0543881 0.0688324 0.151312 0.515548
68 4 1 0.0629322 0.0597709 0.133194 0.551697
170 10 2 -0.0543881 0.290856 0.144268 0.622481
171 10 2 -0.018412 0.241931 0.142795 0.652585
253 15 2 -0.0616365 0.0296204 0.316228 0.574954
431 24 1 0.0629322 0.22754 0.0410007 0.531095
432 24 1 0.0629322 0.145638 0.0580184 0.590423
424 24 2 -0.0543881 0.131636 0.00897691 0.586334
179 10 1 0.0629322 0.312522 0.185692 0.611148
425 24 1 0.0622985 0.0645099 0.0149846 0.641087
167 10 2 -0.0543881 0.244632 0.0367319 0.651869
316 18 2 -0.0543881 0.332972 0.217638 0.347734
851 48 2 -0.0543881 0.312979 0.0820294 0.387625
852 48 2 -0.0616365 0.318031 0.0810383 0.438317
314 18 2 -0.0543881 0.319155 0.22436 0.43605
861 48 1 0.0622985 0.277295 0.0876774 0.464238
169 10 2 -0.0616365 0.315408 0.0928146 0.607054
168 10 2 -0.0616365 0.292488 0.040085 0.621579
610 34 1 0.0622985 0.0918154 0.298119 0.335618
267 15 1 0.0622985 0.219032 0.320254 0.422845
258 15 2 -0.0616365 0.181327 0.32534 0.445945
828 46 1 0.0629322 0.26121 0.311689 0.609362
397 23 2 -0.0616365 0.626356 0.309742 0.38321
398 23 2 -0.0616365 0.630351 0.251583 0.371004
856 48 2 -0.0543881 0.463395 0.0555771 0.349995
864 48 1 0.0629322 0.506252 0.0447321 0.364634
319 18 1 0.0629322 0.501062 0.242327 0.360392
309 18 2 -0.0543881 0.451542 0.234195 0.356423
850 48 2 -0.018412 0.362079 0.0750496 0.35716
854 48 2 -0.0543881 0.418156 0.0627865 0.42927
863 48 1 0.0629322 0.462452 0.0547123 0.445171
855 48 2 -0.018412 0.415651 0.0665294 0.379464
853 48 2 -0.0616365 0.368353 0.0714282 0.459428
862 48 1 0.0622985 0.377398 0.0754697 0.498616
321 18 1 0.0622985 0.414516 0.269736 0.519363
312 18 2 -0.0616365 0.400469 0.257425 0.484243
311 18 2 -0.0543881 0.434138 0.259641 0.441659
320 18 1 0.0629322 0.479398 0.276146 0.446809
313 18 2 -0.0616365 0.341732 0.237527 0.480028
310 18 2 -0.018412 0.41357 0.241873 0.397589
315 18 2 -0.018412 0.35358 0.228649 0.39387
408 23 1 0.0622985 0.642605 0.218164 0.396352
407 23 1 0.0622985 0.63774 0.323714 0.419188
821 46 1 0.0622985 0.369659 0.305561 0.598025
178 10 1 0.0622985 0.352898 0.0951214 0.581412
228 13 1 0.0622985 0.752165 0.214506 0.345277
333 19 2 -0.018412 0.975595 0.0451083 0.42695
72 4 1 0.0629322 0.992905 0.246144 0.380826
64 4 2 -0.0543881 0.984721 0.229819 0.41844
328 19 2 -0.018412 0.993738 0.00291579 0.461743
65 4 1 0.0622985 0.892945 0.256096 0.421612
55 4 2 -0.0616365 0.928615 0.232973 0.441488
56 4 2 -0.0616365 0.918556 0.212139 0.486579
341 19 1 0.0629322 0.905308 0.0993927 0.40107
332 19 2 -0.0543881 0.918815 0.0699557 0.429542
66 4 1 0.0622985 0.875853 0.218995 0.504067
227 13 1 0.0622985 0.861335 0.218758 0.361823
340 19 1 0.0622985 0.836262 0.0772216 0.469583
331 19 2 -0.0616365 0.88197 0.0545299 0.467557
330 19 2 -0.0616365 0.901595 0.0138333 0.502743
339 19 1 0.0622985 0.871819 0.00540741 0.533091
57 4 2 -0.0543881 0.964532 0.18674 0.512865
67 4 1 0.0629322 0.956044 0.173995 0.548973
263 15 1 0.0622985 0.988785 0.321839 0.596534
124 7 1 0.0622985 0.971208 0.197057 0.61991
115 7 2 -0.0616365 0.938871 0.20051 0.649663
123 7 1 0.0622985 0.85662 0.196153 0.609268
114 7 2 -0.0616365 0.876835 0.202838 0.64513
302 17 1 0.0629322 0.249806 0.616064 0.362282
250 14 1 0.0622985 0.139488 0.489133 0.356932
268 15 1 0.0622985 0.136051 0.378454 0.394008
269 15 1 0.0629322 0.0445992 0.391578 0.444366
295 17 2 -0.0616365 0.313483 0.6164 0.4741
293 17 2 -0.0543881 0.283524 0.610019 0.389607
294 17 2 -0.0616365 0.270109 0.620761 0.438386
303 17 1 0.0622985 0.226981 0.641933 0.445447
304 17 1 0.0622985 0.297767 0.633297 0.511173
259 15 2 -0.0616365 0.132553 0.356374 0.431098
764 43 2 -0.0543881 0.111562 0.607253 0.497443
773 43 1 0.0629322 0.147736 0.581312 0.477932
765 43 2 -0.018412 0.0542831 0.586156 0.502995
243 14 2 -0.018412 0.279275 0.448456 0.400594
242 14 2 -0.0543881 0.223064 0.474158 0.399756
241 14 2 -0.0616365 0.187105 0.473775 0.35744
251 14 1 0.0629322 0.205493 0.491342 0.434948
252 14 1 0.0629322 0.297412 0.468202 0.472511
774 43 1 0.0629322 0.0668831 0.496767 0.470163
766 43 2 -0.0543881 0.0345267 0.529368 0.487195
354 20 1 0.0622985 0.0749003 0.593957 0.377114
262 15 2 -0.0543881 0.0323213 0.344898 0.531183
819 46 2 -0.018412 0.25867 0.40432 0.592479
261 15 2 -0.018412 0.0825064 0.338006 0.502661
820 46 2 -0.0543881 0.288523 0.352309 0.600806
816 46 2 -0.0616365 0.202404 0.511839 0.581787
260 15 2 -0.0543881 0.0847797 0.363405 0.458082
817 46 2 -0.0616365 0.169417 0.463721 0.597212
818 46 2 -0.0543881 0.198335 0.411086 0.602541
826 46 1 0.0622985 0.122194 0.468292 0.605734
827 46 1 0.0629322 0.17307 0.37089 0.615099
825 46 1 0.0622985 0.180888 0.556108 0.579106
877 49 1 0.0629322 0.0770035 0.569119 0.652369
876 49 1 0.0622985 0.0122294 0.480751 0.641928
867 49 2 -0.0543881 0.0285898 0.57632 0.648053
868 49 2 -0.018412 0.00376239 0.631511 0.647445
244 14 2 -0.0543881 0.315223 0.44735 0.441707
238 14 2 -0.018412 0.30138 0.423709 0.357548
815 46 2 -0.0543881 0.261085 0.506374 0.572842
814 46 2 -0.018412 0.291588 0.454155 0.579435
824 46 1 0.0629322 0.285367 0.548421 0.562682
763 43 2 -0.0616365 0.126989 0.663001 0.512524
353 20 1 0.0622985 0.156234 0.665119 0.362096
344 20 2 -0.0616365 0.0713986 0.639699 0.387514
345 20 2 -0.0543881 0.0174349 0.658065 0.409091
760 43 2 -0.018412 0.0125192 0.62275 0.523931
659 37 1 0.0622985 0.22723 0.666356 0.596333
406 23 2 -0.0543881 0.610244 0.350805 0.349403
414 23 1 0.0629322 0.608938 0.399544 0.357589
299 17 1 0.0622985 0.501222 0.525761 0.351076
10 1 2 -0.0543881 0.663802 0.541024 0.381915
289 17 2 -0.0616365 0.455326 0.545664 0.356255
235 14 2 -0.0616365 0.369978 0.419512 0.439188
237 14 2 -0.0543881 0.357453 0.399892 0.354711
305 17 1 0.0629322 0.40314 0.57991 0.493082
298 17 2 -0.0543881 0.441032 0.561312 0.404925
297 17 2 -0.018412 0.384674 0.581617 0.416267
296 17 2 -0.0543881 0.368477 0.588807 0.464538
236 14 2 -0.0616365 0.391183 0.393438 0.395823
306 17 1 0.0629322 0.47475 0.56016 0.433892
245 14 1 0.0622985 0.398705 0.418778 0.470371
292 17 2 -0.018412 0.34071 0.58867 0.377035
14 1 1 0.0629322 0.603251 0.652282 0.515514
246 14 1 0.0622985 0.433217 0.368228 0.393093
15 1 1 0.0622985 0.557449 0.569989 0.55129
16 1 1 0.0622985 0.554998 0.467432 0.509853
7 1 2 -0.0616365 0.577777 0.506227 0.493084
6 1 2 -0.0616365 0.574645 0.562388 0.513478
5 1 2 -0.0543881 0.602558 0.609476 0.493723
8 1 2 -0.0543881 0.608025 0.498828 0.448235
17 1 1 0.0629322 0.611428 0.455601 0.434988
812 46 2 -0.0616365 0.380293 0.397049 0.577918
822 46 1 0.0622985 0.428424 0.395638 0.571554
813 46 2 -0.0543881 0.352106 0.450878 0.57432
811 46 2 -0.0616365 0.347916 0.347662 0.591878
823 46 1 0.0629322 0.379153 0.489505 0.564778
281 16 1 0.0622985 0.438534 0.592319 0.602701
271 16 2 -0.0616365 0.466214 0.631529 0.610944
280 16 2 -0.0543881 0.471652 0.653978 0.658796
4 1 2 -0.018412 0.632599 0.602308 0.447897
9 1 2 -0.018412 0.632296 0.547725 0.425236
3 1 2 -0.0543881 0.659359 0.650714 0.42757
720 40 1 0.0629322 0.630379 0.616312 0.657714
282 16 1 0.0622985 0.487941 0.654249 0.537308
1 1 2 -0.0616365 0.691004 0.589735 0.361401
18 1 1 0.0629322 0.667067 0.496515 0.364089
767 43 1 0.0622985 0.962187 0.47055 0.479304
757 43 2 -0.0616365 0.975746 0.513488 0.491711
759 43 2 -0.0543881 0.953286 0.604246 0.530299
866 49 2 -0.0616365 0.992732 0.52652 0.6407
722 41 2 -0.0616365 0.912573 0.415472 0.340668
732 41 1 0.0622985 0.935244 0.407442 0.375224
723 41 2 -0.0543881 0.851481 0.410812 0.337465
733 41 1 0.0629322 0.827928 0.39871 0.370178
693 39 2 -0.018412 0.766868 0.560443 0.536854
698 39 1 0.0629322 0.803374 0.554238 0.415935
688 39 2 -0.018412 0.787302 0.580538 0.492218
687 39 2 -0.0543881 0.805279 0.639705 0.486022
697 39 1 0.0629322 0.821049 0.656471 0.451062
2 1 2 -0.0616365 0.687799 0.64403 0.38422
689 39 2 -0.0543881 0.788048 0.541005 0.454309
699 39 1 0.0622985 0.771789 0.450765 0.432111
690 39 2 -0.0616365 0.77063 0.482598 0.461621
692 39 2 -0.0543881 0.748772 0.500756 0.543614
694 39 2 -0.0543881 0.763261 0.601311 0.573152
685 39 2 -0.0616365 0.781836 0.65926 0.568175
758 43 2 -0.0616365 0.935744 0.551071 0.513612
768 43 1 0.0622985 0.889093 0.536273 0.521926
270 15 1 0.0629322 0.995311 0.36867 0.518132
374 21 1 0.0629322 0.822222 0.399898 0.663056
691 39 2 -0.0616365 0.750788 0.462432 0.504619
700 39 1 0.0622985 0.731905 0.419621 0.50956
701 39 1 0.0629322 0.73073 0.485331 0.577308
882 49 1 0.0629322 0.857986 0.595124 0.631007
875 49 1 0.0622985 0.906862 0.492864 0.628011
874 49 2 -0.0543881 0.908101 0.590058 0.636741
865 49 2 -0.0616365 0.933595 0.533685 0.635143
873 49 2 -0.018412 0.941868 0.640004 0.643693
373 21 1 0.0629322 0.925525 0.376558 0.652881
355 20 1 0.0629322 0.985102 0.623731 0.417604
702 39 1 0.0629322 0.743411 0.588 0.607974
769 43 1 0.0629322 0.922623 0.634572 0.546722
88 5 1 0.0622985 0.183353 0.892248 0.347256
326 19 2 -0.0616365 0.0871811 0.99536 0.422007
336 19 1 0.0622985 0.132788 0.974765 0.419635
327 19 2 -0.0543881 0.0483099 0.975563 0.45777
422 24 2 -0.0543881 0.207411 0.995835 0.52438
415 24 2 -0.0616365 0.0873824 0.987011 0.615291
430 24 1 0.0622985 0.274212 0.974862 0.469648
421 24 2 -0.0616365 0.236531 0.958919 0.491503
423 24 2 -0.018412 0.160171 0.975366 0.551796
176 10 1 0.0629322 0.226919 0.994338 0.666396
177 10 1 0.0622985 0.311381 0.998376 0.605345
772 43 1 0.0622985 0.175575 0.675445 0.504941
771 43 1 0.0622985 0.0984046 0.746602 0.546106
762 43 2 -0.0616365 0.0871088 0.699307 0.534543
761 43 2 -0.0543881 0.0280669 0.679675 0.537169
48 3 1 0.0622985 0.329233 0.938628 0.412704
360 20 1 0.0629322 0.139198 0.774063 0.383958
352 20 2 -0.0543881 0.106139 0.739315 0.39214
343 20 2 -0.0616365 0.114052 0.680513 0.378374
337 19 1 0.0629322 0.0646002 0.939775 0.482354
466 26 1 0.0622985 0.245647 0.79278 0.41857
351 20 2 -0.018412 0.0519498 0.757656 0.412653
457 26 2 -0.0616365 0.287109 0.77672 0.40272
456 26 2 -0.0616365 0.288978 0.767875 0.353191
346 20 2 -0.018412 0.00887619 0.716448 0.420354
467 26 1 0.0629322 0.326068 0.772196 0.473555
359 20 1 0.0629322 0.0767241 0.849891 0.422435
350 20 2 -0.0543881 0.0415604 0.815384 0.428065
649 37 2 -0.0616365 0.21388 0.686715 0.630114
666 37 1 0.0629322 0.213873 0.774826 0.597578
658 37 2 -0.0543881 0.205082 0.746598 0.628892
429 24 1 0.0622985 0.24399 0.875579 0.458693
420 24 2 -0.0616365 0.220681 0.902414 0.486028
419 24 2 -0.0543881 0.176253 0.878723 0.515297
665 37 1 0.0629322 0.193714 0.865113 0.642883
428 24 1 0.0629322 0.166862 0.829682 0.510825
418 24 2 -0.018412 0.145008 0.915701 0.54642
869 49 2 -0.0543881 0.0380919 0.684158 0.651077
878 49 1 0.0629322 0.0852439 0.680615 0.653017
417 24 2 -0.0543881 0.102027 0.893342 0.577592
870 49 2 -0.0616365 0.0109176 0.739925 0.651587
879 49 1 0.0622985 0.0398966 0.779485 0.65407
427 24 1 0.0629322 0.0906674 0.845084 0.575637
426 24 1 0.0622985 0.0328604 0.91004 0.632939
416 24 2 -0.0616365 0.0722116 0.928119 0.609546
458 26 2 -0.0543881 0.33153 0.765159 0.434713
47 3 1 0.0622985 0.376172 0.916413 0.334769
462 26 1 0.0622985 0.535631 0.696986 0.356075
461 26 1 0.0622985 0.524285 0.705735 0.446141
35 2 1 0.0629322 0.34971 0.694896 0.63492
13 1 1 0.0629322 0.658516 0.697133 0.443396
49 3 1 0.0629322 0.396805 0.915962 0.486127
38 3 2 -0.0616365 0.379321 0.919457 0.410011
39 3 2 -0.0543881 0.414265 0.905689 0.45118
37 3 2 -0.0616365 0.402612 0.908384 0.366661
40 3 2 -0.018412 0.469644 0.884819 0.446672
50 3 1 0.0629322 0.490466 0.884486 0.524601
41 3 2 -0.0543881 0.506668 0.874713 0.48839
46 3 2 -0.0543881 0.460172 0.885604 0.363683
45 3 2 -0.018412 0.4965 0.876157 0.402954
53 3 1 0.0629322 0.571429 0.847973 0.361357
44 3 2 -0.0543881 0.553382 0.853724 0.397668
43 3 2 -0.0616365 0.589083 0.843198 0.43747
42 3 2 -0.0616365 0.564448 0.853579 0.483158
454 26 2 -0.018412 0.390562 0.7393 0.362368
453 26 2 -0.0543881 0.442888 0.720757 0.340741
460 26 2 -0.0543881 0.434435 0.734482 0.439837
452 26 2 -0.0616365 0.491603 0.712645 0.370439
459 26 2 -0.018412 0.385703 0.747945 0.413262
468 26 1 0.0629322 0.427811 0.745044 0.480966
451 26 2 -0.0616365 0.486994 0.715155 0.420529
52 3 1 0.0622985 0.636315 0.825445 0.435747
272 16 2 -0.0616365 0.493241 0.667127 0.575599
34 2 1 0.0622985 0.358817 0.744533 0.558437
26 2 2 -0.0543881 0.352446 0.743387 0.636371
25 2 2 -0.0616365 0.358921 0.771257 0.594126
33 2 1 0.0622985 0.366254 0.862142 0.561146
24 2 2 -0.0616365 0.361336 0.834121 0.592805
23 2 2 -0.0543881 0.35408 0.863787 0.634893
32 2 1 0.0629322 0.357512 0.912589 0.63376
51 3 1 0.0622985 0.588575 0.846667 0.515057
274 16 2 -0.018412 0.523946 0.742514 0.634084
273 16 2 -0.0543881 0.518949 0.721902 0.586326
283 16 1 0.0629322 0.531592 0.750495 0.555771
284 16 1 0.0629322 0.56546 0.831414 0.621113
275 16 2 -0.0543881 0.547831 0.798184 0.646795
719 40 1 0.0629322 0.656346 0.705014 0.614455
12 1 1 0.0622985 0.704097 0.683582 0.36367
897 50 1 0.0622985 0.851017 0.920356 0.359445
888 50 2 -0.0616365 0.874414 0.87853 0.345762
885 50 2 -0.0543881 0.841267 0.71808 0.336369
895 50 1 0.0629322 0.796342 0.715117 0.350949
887 50 2 -0.0543881 0.844248 0.825942 0.347567
896 50 1 0.0629322 0.797428 0.82589 0.361744
329 19 2 -0.0543881 0.95675 0.986398 0.500664
338 19 1 0.0629322 0.971477 0.955444 0.529987
686 39 2 -0.0616365 0.803967 0.680276 0.523351
696 39 1 0.0622985 0.817818 0.726537 0.514617
770 43 1 0.0629322 0.992411 0.709999 0.553164
710 40 2 -0.0543881 0.667328 0.726481 0.648361
358 20 1 0.0622985 0.973719 0.877691 0.453806
349 20 2 -0.0616365 0.985887 0.832029 0.446714
695 39 1 0.0622985 0.775806 0.690336 0.600765
348 20 2 -0.0616365 0.942531 0.79132 0.449498
347 20 2 -0.0543881 0.954035 0.732678 0.438716
357 20 1 0.0622985 0.897266 0.803192 0.461621
356 20 1 0.0629322 0.917803 0.698482 0.438676
881 49 1 0.0629322 0.866803 0.697858 0.643752
718 40 1 0.0622985 0.691771 0.808612 0.613611
872 49 2 -0.0543881 0.916522 0.695372 0.645678
871 49 2 -0.0616365 0.950359 0.746839 0.64753
880 49 1 0.0622985 0.93274 0.792687 0.643501
709 40 2 -0.0616365 0.686715 0.78641 0.648296
173 10 1 0.0622985 0.149394 0.235451 0.713365
163 10 2 -0.0616365 0.168247 0.194855 0.697992
172 10 2 -0.0543881 0.218081 0.194739 0.67009
164 10 2 -0.0616365 0.142457 0.141535 0.710332
174 10 1 0.0622985 0.100461 0.139851 0.730521
166 10 2 -0.018412 0.217699 0.0889641 0.667292
165 10 2 -0.0543881 0.166966 0.088686 0.695649