ITEM: TIMESTEP
0
ITEM: NUMBER OF ATOMS
900
ITEM: BOX BOUNDS pp pp pp
6.8408488417770741e-01 2.1305508115822214e+01
6.8408488417770741e-01 2.1305508115822214e+01
1.0872933723188230e+03 1.1116659196811770e+03
ITEM: ATOMS id mol type q xs ys zs
492 28 2 -0.0616365 0.0934355 0.104198 0.107548
493 28 2 -0.0616365 0.152901 0.121026 0.119401
494 28 2 -0.0543881 0.168434 0.127392 0.173119
490 28 2 -0.018412 0.0602588 0.0957016 0.200871
495 28 2 -0.018412 0.120397 0.113815 0.214935
491 28 2 -0.0543881 0.0466976 0.0932001 0.145864
500 28 1 0.0629322 0.000526079 0.0770337 0.133537
487 28 2 -0.0616365 0.0882871 0.123246 0.307038
496 28 2 -0.0543881 0.133396 0.127379 0.267495
504 28 1 0.0629322 0.182811 0.144829 0.275372
608 34 1 0.0629322 0.178034 0.308075 0.298015
488 28 2 -0.0616365 0.0282198 0.0994407 0.295439
489 28 2 -0.0543881 0.0147536 0.0844758 0.242183
599 34 2 -0.0543881 0.131142 0.297627 0.281841
598 34 2 -0.018412 0.1237 0.294004 0.226117
600 34 2 -0.0616365 0.0829056 0.28128 0.315124
597 34 2 -0.0543881 0.174767 0.308496 0.19355
502 28 1 0.0622985 0.188302 0.129406 0.0891062
503 28 1 0.0629322 0.213947 0.145494 0.181093
602 34 2 -0.0543881 0.0167901 0.265318 0.238577
604 34 2 -0.0543881 0.065371 0.267916 0.148948
603 34 2 -0.018412 0.0676761 0.275393 0.203845
753 42 1 0.0622985 0.442303 0.198191 0.0707692
754 42 1 0.0622985 0.343191 0.233621 0.109155
745 42 2 -0.0616365 0.381092 0.270604 0.0975442
318 18 1 0.0622985 0.30232 0.219276 0.274117
857 48 1 0.0622985 0.30775 0.0592997 0.252645
847 48 2 -0.0616365 0.317715 0.0572651 0.29593
308 18 2 -0.0616365 0.310915 0.219491 0.320021
744 42 2 -0.0616365 0.437195 0.24868 0.0773975
743 42 2 -0.0543881 0.484142 0.289942 0.0620462
746 42 2 -0.0543881 0.367899 0.337519 0.0976851
755 42 1 0.0629322 0.318664 0.349009 0.115272
856 48 2 -0.0543881 0.378652 0.0654885 0.31245
864 48 1 0.0629322 0.416672 0.076986 0.283381
612 34 1 0.0629322 0.0194782 0.256468 0.124765
607 34 1 0.0629322 0.22165 0.324938 0.209869
596 34 2 -0.0616365 0.173662 0.300819 0.139366
606 34 1 0.0622985 0.216124 0.312481 0.113552
594 33 1 0.0629322 0.193313 0.425762 0.23132
587 33 1 0.0622985 0.115966 0.43433 0.307223
605 34 1 0.0622985 0.116962 0.277112 0.0743865
595 34 2 -0.0616365 0.118937 0.27959 0.117229
756 42 1 0.0629322 0.356008 0.463486 0.0900372
742 42 2 -0.018412 0.47202 0.353919 0.064429
747 42 2 -0.018412 0.416216 0.378107 0.0821151
748 42 2 -0.0543881 0.40163 0.442031 0.0783642
739 42 2 -0.0616365 0.45076 0.482294 0.0576245
858 48 1 0.0622985 0.221718 0.0397094 0.322297
848 48 2 -0.0616365 0.27196 0.0437441 0.333279
319 18 1 0.0629322 0.407544 0.248804 0.313599
501 28 1 0.0622985 0.0771578 0.0955164 0.063736
808 45 1 0.0622985 0.183579 0.343472 0.00236848
205 12 2 -0.0616365 0.0215137 0.407 0.00489395
206 12 2 -0.0543881 0.0207127 0.416782 0.059449
448 25 1 0.0622985 0.382688 0.0840434 0.0560994
447 25 1 0.0622985 0.361896 0.0763694 0.149541
439 25 2 -0.0616365 0.409982 0.0473216 0.0821282
438 25 2 -0.0616365 0.397832 0.044651 0.134579
586 33 2 -0.0543881 0.183283 0.47419 0.254536
593 33 1 0.0629322 0.273039 0.482617 0.175136
247 14 1 0.0629322 0.335072 0.369379 0.261254
246 14 1 0.0622985 0.450059 0.380254 0.228597
237 14 2 -0.0543881 0.372825 0.383458 0.288353
809 45 1 0.0629322 0.251652 0.438343 0.0205856
601 34 2 -0.0616365 0.0244032 0.269812 0.293001
437 25 2 -0.0543881 0.428019 0.00246329 0.168338
446 25 1 0.0629322 0.416111 0.00250045 0.213303
577 33 2 -0.0616365 0.141532 0.47674 0.295563
216 12 1 0.0629322 0.0329802 0.445027 0.164473
208 12 2 -0.0543881 0.055161 0.479095 0.135507
207 12 2 -0.018412 0.0554344 0.466562 0.0820092
440 25 2 -0.0543881 0.452381 0.0016768 0.0616849
235 14 2 -0.0616365 0.481627 0.409305 0.304882
236 14 2 -0.0616365 0.434873 0.390208 0.269938
215 12 1 0.0629322 0.992562 0.388259 0.0892203
751 42 1 0.0629322 0.56701 0.375772 0.034086
741 42 2 -0.0543881 0.519346 0.393722 0.0470786
740 42 2 -0.0616365 0.509208 0.458695 0.0477553
752 42 1 0.0629322 0.533257 0.272061 0.0445994
108 6 1 0.0629322 0.9067 0.333226 0.229246
750 42 1 0.0622985 0.546412 0.491262 0.0316383
499 28 1 0.0629322 0.967337 0.0673204 0.234074
498 28 1 0.0622985 0.993813 0.0979455 0.329456
142 8 1 0.0622985 0.53275 0.426603 0.168928
610 34 1 0.0622985 0.982125 0.257829 0.316406
411 23 1 0.0622985 0.62447 0.388837 0.318706
233 13 1 0.0629322 0.809485 0.194594 0.15427
231 13 1 0.0622985 0.625786 0.263614 0.136661
780 44 2 -0.0616365 0.588974 0.0802377 0.113458
781 44 2 -0.0616365 0.616989 0.124301 0.0804682
223 13 2 -0.0616365 0.723059 0.236337 0.146843
222 13 2 -0.0616365 0.660123 0.232771 0.159243
779 44 2 -0.0543881 0.624568 0.0301114 0.129805
234 13 1 0.0629322 0.836949 0.106323 0.219393
224 13 2 -0.0543881 0.762883 0.193706 0.171194
226 13 2 -0.0543881 0.785174 0.108004 0.229658
217 13 2 -0.0616365 0.761496 0.0615066 0.259105
791 44 1 0.0629322 0.700513 0.161034 0.0409105
782 44 2 -0.0543881 0.679791 0.124625 0.0669809
230 13 1 0.0629322 0.588906 0.193824 0.207544
783 44 2 -0.018412 0.715243 0.0732587 0.0810093
778 44 2 -0.018412 0.689291 0.0267075 0.114085
221 13 2 -0.0543881 0.638642 0.192091 0.196535
792 44 1 0.0629322 0.800076 0.102444 0.0311565
225 13 2 -0.018412 0.74122 0.149961 0.208167
784 44 2 -0.0543881 0.777182 0.0679703 0.0603313
220 13 2 -0.018412 0.678042 0.147355 0.220552
219 13 2 -0.0543881 0.654521 0.098417 0.25367
229 13 1 0.0629322 0.606786 0.0909873 0.259642
218 13 2 -0.0616365 0.699718 0.053337 0.272399
232 13 1 0.0622985 0.738555 0.268521 0.112
785 44 1 0.0622985 0.865194 0.0156481 0.0596416
775 44 2 -0.0616365 0.815586 0.0187623 0.0765515
735 41 1 0.0622985 0.683734 0.343368 0.217366
228 13 1 0.0622985 0.682965 0.0127321 0.299217
611 34 1 0.0629322 0.972019 0.247347 0.21911
725 41 2 -0.0543881 0.758544 0.330943 0.279583
227 13 1 0.0622985 0.790279 0.0237633 0.275782
143 8 1 0.0629322 0.638654 0.459527 0.140415
134 8 2 -0.0543881 0.6059 0.496042 0.154789
133 8 2 -0.0616365 0.54702 0.475128 0.170069
98 6 2 -0.0543881 0.856137 0.379931 0.133296
97 6 2 -0.0616365 0.834044 0.406779 0.087888
107 6 1 0.0629322 0.851639 0.328751 0.138086
106 6 1 0.0622985 0.810262 0.376615 0.0555346
729 41 2 -0.018412 0.795154 0.428453 0.319913
726 41 2 -0.0616365 0.720035 0.366467 0.247282
119 7 1 0.0622985 0.710825 0.280682 0.0137196
734 41 1 0.0629322 0.757949 0.278507 0.277958
724 41 2 -0.018412 0.797254 0.362695 0.315432
736 41 1 0.0622985 0.68466 0.454779 0.226274
727 41 2 -0.0616365 0.718892 0.432211 0.251737
728 41 2 -0.0543881 0.755437 0.461597 0.287125
410 23 1 0.0629322 0.607005 0.280387 0.299211
100 6 2 -0.0543881 0.915944 0.385317 0.216107
101 6 1 0.0622985 0.965164 0.399134 0.293763
91 6 2 -0.0616365 0.950534 0.419398 0.254938
92 6 2 -0.0616365 0.957281 0.484271 0.245557
94 6 2 -0.018412 0.898597 0.478663 0.163617
99 6 2 -0.018412 0.889715 0.413431 0.171071
96 6 2 -0.0616365 0.843152 0.470756 0.0819568
105 6 1 0.0622985 0.822942 0.494996 0.0460865
245 14 1 0.0622985 0.531803 0.414617 0.293206
790 44 1 0.0622985 0.587742 0.159567 0.0627552
789 44 1 0.0622985 0.538496 0.0869262 0.126646
840 47 1 0.0622985 0.186001 0.964388 0.11029
749 42 1 0.0622985 0.441614 0.532984 0.0601375
141 8 1 0.0622985 0.459397 0.510765 0.203773
829 47 2 -0.0616365 0.161015 0.959141 0.191863
839 47 1 0.0622985 0.211799 0.973572 0.200175
841 47 1 0.0629322 0.0717945 0.940772 0.0803052
830 47 2 -0.0616365 0.1478 0.954984 0.139625
831 47 2 -0.0543881 0.0860758 0.941895 0.123985
832 47 2 -0.018412 0.041949 0.931447 0.16275
585 33 2 -0.018412 0.215612 0.526412 0.240695
578 33 2 -0.0616365 0.132439 0.531923 0.324767
580 33 2 -0.018412 0.203131 0.58393 0.267317
579 33 2 -0.0543881 0.159507 0.585375 0.30616
589 33 1 0.0629322 0.141977 0.632187 0.325489
584 33 2 -0.0543881 0.262703 0.525707 0.199139
300 17 1 0.0622985 0.407572 0.590293 0.273181
192 11 1 0.0622985 0.465317 0.662038 0.110274
191 11 1 0.0622985 0.472263 0.697369 0.0195299
181 11 2 -0.0616365 0.446535 0.730729 0.0472114
838 47 2 -0.0543881 0.116437 0.944279 0.232457
846 47 1 0.0629322 0.128555 0.946992 0.275943
581 33 2 -0.0543881 0.237951 0.636534 0.254617
590 33 1 0.0629322 0.229126 0.678087 0.278726
837 47 2 -0.018412 0.055843 0.933204 0.21769
836 47 2 -0.0543881 0.00816298 0.920925 0.254798
83 5 1 0.0622985 0.139023 0.725795 0.0503354
73 5 2 -0.0616365 0.132496 0.73901 0.0941344
74 5 2 -0.0616365 0.174569 0.777803 0.119236
84 5 1 0.0622985 0.215773 0.795647 0.0936221
582 33 2 -0.0616365 0.286622 0.633728 0.217498
75 5 2 -0.0543881 0.170069 0.799247 0.171386
85 5 1 0.0629322 0.206001 0.830626 0.189347
82 5 2 -0.0543881 0.0839893 0.717113 0.125787
81 5 2 -0.018412 0.0773564 0.735432 0.178414
76 5 2 -0.018412 0.121187 0.774862 0.203195
77 5 2 -0.0543881 0.111962 0.792141 0.25802
86 5 1 0.0629322 0.147113 0.8232 0.280469
583 33 2 -0.0616365 0.299508 0.576803 0.193903
591 33 1 0.0622985 0.320535 0.67457 0.211672
80 5 2 -0.0543881 0.0256718 0.712324 0.207232
78 5 2 -0.0616365 0.06089 0.769993 0.28507
79 5 2 -0.0616365 0.0175244 0.73152 0.260672
209 12 1 0.0622985 0.0829762 0.538135 0.197695
182 11 2 -0.0616365 0.443717 0.707482 0.0993907
195 11 1 0.0622985 0.296032 0.914212 0.189772
196 11 1 0.0622985 0.290321 0.958249 0.0961958
186 11 2 -0.0616365 0.319686 0.887137 0.15627
187 11 2 -0.0616365 0.318848 0.912778 0.105436
194 11 1 0.0629322 0.355607 0.806297 0.206743
184 11 2 -0.018412 0.384339 0.799944 0.127673
185 11 2 -0.0543881 0.351568 0.83176 0.168433
189 11 2 -0.018412 0.384241 0.824793 0.0746757
190 11 2 -0.0543881 0.416703 0.787688 0.0369282
193 11 1 0.0629322 0.422184 0.723183 0.181657
183 11 2 -0.0543881 0.415658 0.742441 0.139075
188 11 2 -0.0543881 0.35539 0.884715 0.0643159
54 3 1 0.0629322 0.356623 0.913349 0.289483
47 3 1 0.0622985 0.235935 0.90223 0.307496
46 3 2 -0.0543881 0.336415 0.9032 0.330168
199 12 2 -0.0616365 0.0853284 0.52793 0.156737
140 8 1 0.0629322 0.489592 0.624721 0.207049
436 25 2 -0.018412 0.471312 0.958159 0.150031
445 25 1 0.0629322 0.491372 0.918814 0.227548
53 3 1 0.0629322 0.468398 0.913161 0.320012
197 11 1 0.0629322 0.357303 0.904025 0.0255608
202 12 2 -0.018412 0.0902909 0.506969 0.0476623
201 12 2 -0.0543881 0.123383 0.557573 0.0701334
592 33 1 0.0622985 0.339951 0.572621 0.165222
200 12 2 -0.0616365 0.123708 0.567015 0.124459
210 12 1 0.0622985 0.154624 0.603111 0.145368
845 47 1 0.0629322 0.018512 0.922776 0.297161
90 5 1 0.0629322 0.0499159 0.680822 0.106874
435 25 2 -0.0543881 0.498656 0.917747 0.184101
441 25 2 -0.018412 0.481768 0.958564 0.0955088
301 17 1 0.0629322 0.319616 0.576996 0.32762
290 17 2 -0.0616365 0.414571 0.586432 0.31662
465 26 1 0.0622985 0.409269 0.756602 0.288627
456 26 2 -0.0616365 0.401332 0.745013 0.331398
466 26 1 0.0622985 0.296401 0.748434 0.328393
87 5 1 0.0622985 0.0564481 0.783507 0.328586
211 12 1 0.0629322 0.151362 0.590793 0.0457944
449 25 1 0.0629322 0.464969 0.998201 0.0177687
132 8 2 -0.0616365 0.506146 0.522669 0.188668
787 44 1 0.0629322 0.709944 0.943542 0.155111
777 44 2 -0.0543881 0.729112 0.980015 0.127618
776 44 2 -0.0616365 0.789649 0.975096 0.109177
788 44 1 0.0629322 0.603743 0.992168 0.154964
135 8 2 -0.018412 0.622691 0.560092 0.1579
144 8 1 0.0629322 0.716694 0.549441 0.127028
136 8 2 -0.0543881 0.680556 0.58182 0.141838
833 47 2 -0.0543881 0.981381 0.916886 0.146976
842 47 1 0.0629322 0.966186 0.915203 0.104798
102 6 1 0.0622985 0.984766 0.5071 0.277073
299 17 1 0.0622985 0.51962 0.595404 0.318803
127 8 2 -0.0616365 0.694784 0.644184 0.138307
137 8 1 0.0622985 0.739266 0.661939 0.124005
103 6 1 0.0629322 0.941728 0.563105 0.197341
93 6 2 -0.0543881 0.931587 0.512971 0.201094
835 47 2 -0.0616365 0.948688 0.901155 0.238553
834 47 2 -0.0616365 0.936243 0.902734 0.185666
104 6 1 0.0629322 0.878383 0.556442 0.104295
131 8 2 -0.0543881 0.523027 0.587524 0.191682
95 6 2 -0.0543881 0.874231 0.506035 0.118452
130 8 2 -0.018412 0.581493 0.606244 0.173951
129 8 2 -0.0543881 0.595375 0.671561 0.173787
128 8 2 -0.0616365 0.65503 0.69113 0.15542
138 8 1 0.0622985 0.669925 0.740906 0.155374
139 8 1 0.0629322 0.558532 0.707104 0.184732
737 41 1 0.0629322 0.746605 0.514554 0.290313
552 31 1 0.0622985 0.803597 0.605033 0.240585
553 31 1 0.0629322 0.697433 0.63256 0.280483
646 36 1 0.0622985 0.850694 0.698361 0.0933717
89 5 1 0.0629322 0.994455 0.681776 0.187288
443 25 1 0.0622985 0.581463 0.831186 0.092447
434 25 2 -0.0616365 0.542923 0.877728 0.163646
444 25 1 0.0622985 0.564113 0.842024 0.191867
442 25 2 -0.0543881 0.516275 0.908436 0.0753584
433 25 2 -0.0616365 0.546289 0.867482 0.110855
555 31 1 0.0622985 0.591462 0.832873 0.316473
645 36 1 0.0622985 0.95362 0.722332 0.0564461
844 47 1 0.0622985 0.909142 0.887227 0.266529
786 44 1 0.0622985 0.820884 0.933422 0.121313
551 31 1 0.0622985 0.871004 0.691801 0.205621
843 47 1 0.0622985 0.889035 0.893855 0.171949
636 36 2 -0.0616365 0.91535 0.756317 0.0459042
635 36 2 -0.0543881 0.926559 0.813494 0.0152465
637 36 2 -0.0616365 0.857244 0.741099 0.0663523
634 36 2 -0.018412 0.876735 0.850248 0.000945664
647 36 1 0.0629322 0.759544 0.764634 0.0657457
638 36 2 -0.0543881 0.808268 0.776535 0.0505023
648 36 1 0.0629322 0.717275 0.851264 0.0246647
639 36 2 -0.018412 0.815985 0.830051 0.0192133
640 36 2 -0.0543881 0.763214 0.863656 0.00789532
558 31 1 0.0629322 0.836672 0.798507 0.206662
556 31 1 0.0622985 0.666755 0.912401 0.278626
557 31 1 0.0629322 0.767618 0.876376 0.237607
547 31 2 -0.0616365 0.6775 0.860694 0.275626
548 31 2 -0.0543881 0.732147 0.84168 0.250021
542 31 2 -0.0616365 0.786356 0.656686 0.240938
541 31 2 -0.0616365 0.823072 0.700132 0.222133
550 31 2 -0.0543881 0.80527 0.761872 0.222545
543 31 2 -0.0543881 0.728796 0.671066 0.26578
549 31 2 -0.018412 0.74902 0.778707 0.244835
546 31 2 -0.0616365 0.635855 0.816709 0.295294
544 31 2 -0.018412 0.707626 0.735112 0.266259
545 31 2 -0.0543881 0.650439 0.753798 0.289948
554 31 1 0.0629322 0.617967 0.71608 0.304598
899 50 1 0.0629322 0.873652 0.846979 0.330259
450 25 1 0.0629322 0.51985 0.900604 0.0295128
644 36 1 0.0629322 0.97427 0.829998 3.6557e-05
88 5 1 0.0622985 0.976852 0.715 0.284309
519 29 1 0.0622985 0.63281 0.575135 0.0373942
509 29 2 -0.0543881 0.614755 0.67146 0.0175375
510 29 2 -0.0616365 0.647569 0.617448 0.0157236
518 29 1 0.0629322 0.574904 0.67604 0.0470421
517 29 1 0.0629322 0.554223 0.788122 0.0135025
497 28 1 0.0622985 0.103951 0.134814 0.348886
609 34 1 0.0622985 0.0872467 0.283229 0.359125
248 14 1 0.0629322 0.266213 0.355823 0.33662
309 18 2 -0.0543881 0.36876 0.230384 0.339809
850 48 2 -0.018412 0.346451 0.0484102 0.404103
855 48 2 -0.018412 0.391819 0.0629801 0.366578
849 48 2 -0.0543881 0.285494 0.0400075 0.38861
854 48 2 -0.0543881 0.449658 0.080749 0.385319
853 48 2 -0.0616365 0.462268 0.0754525 0.440295
317 18 1 0.0622985 0.22043 0.191655 0.341376
307 18 2 -0.0616365 0.266046 0.200627 0.356221
324 18 1 0.0629322 0.238348 0.190075 0.438828
316 18 2 -0.0543881 0.276315 0.203537 0.410701
62 4 2 -0.0543881 0.0204283 0.126568 0.459185
71 4 1 0.0629322 0.038763 0.146293 0.42164
323 18 1 0.0629322 0.30558 0.205917 0.510953
61 4 2 -0.0616365 0.0588416 0.0973238 0.495619
70 4 1 0.0622985 0.112518 0.0983164 0.489136
860 48 1 0.0629322 0.322838 0.0314504 0.488533
322 18 1 0.0622985 0.411502 0.232233 0.546415
257 15 2 -0.0543881 0.122622 0.330783 0.476088
266 15 1 0.0629322 0.167414 0.311487 0.460796
256 15 2 -0.018412 0.100414 0.298686 0.520402
255 15 2 -0.0543881 0.131487 0.244542 0.543349
60 4 2 -0.0616365 0.0367983 0.0706955 0.54284
69 4 1 0.0622985 0.0688084 0.0505668 0.573948
851 48 2 -0.0543881 0.359169 0.0456636 0.458136
314 18 2 -0.0543881 0.346777 0.21429 0.482262
267 15 1 0.0622985 0.110992 0.400842 0.411291
258 15 2 -0.0616365 0.092227 0.378218 0.450134
259 15 2 -0.0616365 0.0341975 0.398846 0.468375
313 18 2 -0.0616365 0.406059 0.228504 0.501463
828 46 1 0.0629322 0.342025 0.330789 0.600737
312 18 2 -0.0616365 0.4554 0.240692 0.465754
311 18 2 -0.0543881 0.443595 0.238165 0.411009
320 18 1 0.0629322 0.482961 0.243564 0.383766
310 18 2 -0.018412 0.384089 0.226875 0.390861
315 18 2 -0.018412 0.336592 0.213062 0.428887
249 14 1 0.0622985 0.245359 0.367708 0.432494
240 14 2 -0.0616365 0.291954 0.375163 0.417311
239 14 2 -0.0543881 0.301489 0.373337 0.364164
268 15 1 0.0622985 0.00614736 0.4388 0.451868
250 14 1 0.0622985 0.326549 0.396165 0.495092
243 14 2 -0.018412 0.410631 0.39846 0.378227
242 14 2 -0.0543881 0.401441 0.404648 0.433734
241 14 2 -0.0616365 0.341668 0.39143 0.453822
251 14 1 0.0629322 0.441798 0.413592 0.464283
774 43 1 0.0629322 0.179919 0.49224 0.603938
244 14 2 -0.0543881 0.469421 0.413472 0.358513
238 14 2 -0.018412 0.361094 0.386984 0.343779
767 43 1 0.0622985 0.0953701 0.406022 0.605776
757 43 2 -0.0616365 0.0819264 0.455764 0.609732
821 46 1 0.0622985 0.377771 0.44306 0.594564
820 46 2 -0.0543881 0.318075 0.36961 0.622821
812 46 2 -0.0616365 0.301003 0.476136 0.647094
811 46 2 -0.0616365 0.335167 0.431598 0.620212
859 48 1 0.0629322 0.247851 0.0269368 0.416847
431 24 1 0.0629322 0.132618 0.0375249 0.664106
422 24 2 -0.0543881 0.183884 0.0349648 0.650376
421 24 2 -0.0616365 0.222876 0.0874261 0.65131
420 24 2 -0.0616365 0.285065 0.0826 0.637184
861 48 1 0.0622985 0.426866 0.0521173 0.517146
852 48 2 -0.0616365 0.417488 0.0550935 0.475715
429 24 1 0.0622985 0.315426 0.127132 0.639465
419 24 2 -0.0543881 0.305813 0.0274633 0.617029
863 48 1 0.0629322 0.4851 0.0960477 0.357332
261 15 2 -0.018412 0.0408975 0.316793 0.537759
260 15 2 -0.0543881 0.00933294 0.36605 0.512265
253 15 2 -0.0616365 0.0467769 0.231539 0.601827
262 15 2 -0.0543881 0.0138272 0.28118 0.579851
758 43 2 -0.0616365 0.0196208 0.470331 0.612061
428 24 1 0.0629322 0.355887 0.0224852 0.604678
33 2 1 0.0622985 0.458924 0.0616384 0.646957
265 15 1 0.0629322 0.178283 0.227292 0.529278
819 46 2 -0.018412 0.263614 0.351546 0.650519
818 46 2 -0.0543881 0.245305 0.28762 0.652251
827 46 1 0.0629322 0.271112 0.251452 0.629368
254 15 2 -0.0616365 0.105613 0.21346 0.583845
263 15 1 0.0622985 0.0259728 0.203201 0.636243
264 15 1 0.0622985 0.132348 0.17176 0.60145
402 23 2 -0.0616365 0.630471 0.353187 0.352766
412 23 1 0.0622985 0.655255 0.425648 0.407679
403 23 2 -0.0616365 0.644832 0.37507 0.403155
401 23 2 -0.0543881 0.621894 0.291289 0.340783
733 41 1 0.0629322 0.830448 0.274857 0.349683
723 41 2 -0.0543881 0.829969 0.328262 0.350352
59 4 2 -0.0543881 0.97504 0.0736992 0.553945
68 4 1 0.0629322 0.958284 0.0556705 0.591078
252 14 1 0.0629322 0.511131 0.428535 0.385598
58 4 2 -0.018412 0.934586 0.102888 0.517521
321 18 1 0.0622985 0.502088 0.246483 0.484413
413 23 1 0.0629322 0.6713 0.343909 0.478692
404 23 2 -0.0543881 0.653604 0.328428 0.440843
862 48 1 0.0622985 0.5107 0.0875505 0.456925
414 23 1 0.0629322 0.65692 0.245086 0.515366
269 15 1 0.0629322 0.958326 0.378624 0.524761
400 23 2 -0.018412 0.629391 0.245912 0.380623
405 23 2 -0.018412 0.644424 0.266776 0.432618
730 41 2 -0.0543881 0.831694 0.456874 0.35666
63 4 2 -0.018412 0.956862 0.1288 0.47118
64 4 2 -0.0543881 0.913128 0.159029 0.437804
57 4 2 -0.0543881 0.86989 0.102527 0.528988
67 4 1 0.0629322 0.84941 0.0784605 0.564126
399 23 2 -0.0543881 0.619601 0.181757 0.373958
409 23 1 0.0629322 0.6062 0.168504 0.333905
408 23 1 0.0622985 0.614804 0.0850686 0.403309
398 23 2 -0.0616365 0.626749 0.138267 0.413637
72 4 1 0.0629322 0.931092 0.181863 0.401869
65 4 1 0.0622985 0.813549 0.177146 0.418448
55 4 2 -0.0616365 0.850762 0.158079 0.445473
56 4 2 -0.0616365 0.828957 0.133026 0.492377
66 4 1 0.0622985 0.775207 0.132393 0.50156
270 15 1 0.0629322 0.967196 0.296442 0.595919
397 23 2 -0.0616365 0.637347 0.160898 0.466205
407 23 1 0.0622985 0.638744 0.12709 0.501689
406 23 2 -0.0543881 0.648662 0.224229 0.474219
8 1 2 -0.0543881 0.624452 0.354401 0.640533
17 1 1 0.0629322 0.598305 0.309607 0.633081
9 1 2 -0.018412 0.618049 0.403642 0.604721
18 1 1 0.0629322 0.55004 0.356282 0.551509
731 41 1 0.0622985 0.899314 0.445362 0.419079
721 41 2 -0.0616365 0.870543 0.420796 0.390889
722 41 2 -0.0616365 0.865994 0.356154 0.389355
732 41 1 0.0622985 0.894718 0.330053 0.417791
693 39 2 -0.018412 0.836173 0.368 0.603085
698 39 1 0.0629322 0.785768 0.270494 0.504284
688 39 2 -0.018412 0.81515 0.350712 0.553051
687 39 2 -0.0543881 0.806425 0.394797 0.512457
697 39 1 0.0629322 0.787237 0.382347 0.47358
689 39 2 -0.0543881 0.799995 0.287958 0.543795
699 39 1 0.0622985 0.799156 0.194084 0.581683
690 39 2 -0.0616365 0.809108 0.243865 0.586795
692 39 2 -0.0543881 0.84032 0.326759 0.643822
694 39 2 -0.0543881 0.848339 0.43256 0.612029
768 43 1 0.0622985 0.984162 0.433241 0.61251
691 39 2 -0.0616365 0.824909 0.264647 0.637987
702 39 1 0.0629322 0.863081 0.450556 0.653427
10 1 2 -0.0543881 0.576801 0.40142 0.562288
538 30 1 0.0622985 0.664803 0.218915 0.646212
4 1 2 -0.018412 0.652335 0.459416 0.61074
1 1 2 -0.0616365 0.5706 0.452149 0.52726
11 1 1 0.0622985 0.536594 0.4465 0.493906
685 39 2 -0.0616365 0.835348 0.475822 0.571819
686 39 2 -0.0616365 0.814578 0.458548 0.521617
696 39 1 0.0622985 0.804421 0.492735 0.491371
276 16 2 -0.0616365 0.608961 0.00970181 0.572763
285 16 1 0.0622985 0.608239 0.0262651 0.529676
570 32 1 0.0622985 0.519058 0.44332 0.658354
5 1 2 -0.0543881 0.694248 0.463671 0.652837
277 16 2 -0.0616365 0.621993 0.0502152 0.612974
286 16 1 0.0622985 0.631949 0.0977956 0.606219
278 16 2 -0.0543881 0.622024 0.0303172 0.663729
625 35 1 0.0629322 0.872954 0.0152395 0.666052
37 3 2 -0.0616365 0.271765 0.900371 0.339898
432 24 1 0.0629322 0.115764 0.927056 0.634817
424 24 2 -0.0543881 0.165799 0.927013 0.621783
766 43 2 -0.0543881 0.126182 0.505151 0.606119
822 46 1 0.0622985 0.316252 0.526469 0.642733
423 24 2 -0.018412 0.204473 0.978417 0.629114
418 24 2 -0.018412 0.267857 0.975429 0.612194
588 33 1 0.0622985 0.0986632 0.536803 0.359909
455 26 2 -0.0543881 0.452502 0.729227 0.365355
415 24 2 -0.0616365 0.186623 0.870805 0.597724
302 17 1 0.0629322 0.266937 0.559559 0.408543
289 17 2 -0.0616365 0.47456 0.589046 0.339315
291 17 2 -0.0543881 0.362902 0.572958 0.346945
335 19 1 0.0622985 0.0136442 0.997415 0.378822
416 24 2 -0.0616365 0.247798 0.87016 0.578241
426 24 1 0.0622985 0.267208 0.829266 0.559373
293 17 2 -0.0543881 0.316813 0.558606 0.430255
294 17 2 -0.0616365 0.316382 0.544415 0.482607
303 17 1 0.0622985 0.270473 0.536142 0.504596
764 43 2 -0.0543881 0.156221 0.614953 0.613712
773 43 1 0.0629322 0.207434 0.60635 0.607616
765 43 2 -0.018412 0.108597 0.568164 0.609603
763 43 2 -0.0616365 0.136079 0.677646 0.622268
292 17 2 -0.018412 0.368727 0.566498 0.400141
772 43 1 0.0622985 0.171707 0.714546 0.62447
761 43 2 -0.0543881 0.026621 0.644053 0.61925
295 17 2 -0.0616365 0.373664 0.554887 0.506534
304 17 1 0.0622985 0.373626 0.555994 0.552166
760 43 2 -0.018412 0.0449595 0.580721 0.613183
353 20 1 0.0622985 0.195064 0.622221 0.453567
343 20 2 -0.0616365 0.140402 0.628213 0.456113
305 17 1 0.0629322 0.471715 0.566575 0.497164
298 17 2 -0.0543881 0.478158 0.586018 0.39253
297 17 2 -0.018412 0.42651 0.571008 0.424535
296 17 2 -0.0543881 0.425922 0.562929 0.478542
354 20 1 0.0622985 0.118023 0.529787 0.478685
344 20 2 -0.0616365 0.0992202 0.578222 0.46843
325 19 2 -0.0616365 0.0174105 0.973604 0.41624
326 19 2 -0.0616365 0.0723826 0.944717 0.431532
336 19 1 0.0622985 0.113118 0.944956 0.402132
771 43 1 0.0622985 0.0588921 0.744841 0.628486
762 43 2 -0.0616365 0.0722547 0.6925 0.623253
360 20 1 0.0629322 0.144226 0.72854 0.42775
352 20 2 -0.0543881 0.113219 0.685524 0.442777
457 26 2 -0.0616365 0.339435 0.746184 0.352794
467 26 1 0.0629322 0.286304 0.7405 0.426015
417 24 2 -0.0543881 0.287809 0.921976 0.586388
458 26 2 -0.0543881 0.333217 0.738334 0.40755
327 19 2 -0.0543881 0.0737009 0.91033 0.475436
337 19 1 0.0629322 0.116589 0.880807 0.485477
359 20 1 0.0629322 0.0512364 0.796295 0.423684
48 3 1 0.0622985 0.20512 0.881747 0.398341
459 26 2 -0.018412 0.38418 0.727507 0.443044
34 2 1 0.0622985 0.435928 0.947786 0.621069
25 2 2 -0.0616365 0.448533 0.961511 0.663363
49 3 1 0.0629322 0.28395 0.87296 0.475481
38 3 2 -0.0616365 0.254965 0.885086 0.392025
39 3 2 -0.0543881 0.298118 0.878923 0.433362
40 3 2 -0.018412 0.363089 0.883791 0.423157
50 3 1 0.0629322 0.395856 0.859601 0.505363
41 3 2 -0.0543881 0.409081 0.874089 0.463657
45 3 2 -0.018412 0.384606 0.895289 0.370318
44 3 2 -0.0543881 0.449682 0.904256 0.362664
454 26 2 -0.018412 0.442765 0.721805 0.420835
460 26 2 -0.0543881 0.37754 0.720692 0.497887
468 26 1 0.0629322 0.331304 0.727238 0.518733
427 24 1 0.0629322 0.340548 0.914335 0.57583
351 20 2 -0.018412 0.0493022 0.694459 0.447454
453 26 2 -0.0543881 0.495997 0.708122 0.451128
345 20 2 -0.0543881 0.0344324 0.588136 0.475194
355 20 1 0.0629322 0.00594967 0.549142 0.490653
461 26 1 0.0622985 0.422796 0.702582 0.568624
42 3 2 -0.0616365 0.473696 0.880646 0.452859
452 26 2 -0.0616365 0.490409 0.698742 0.505442
451 26 2 -0.0616365 0.432217 0.707478 0.527969
425 24 1 0.0622985 0.157538 0.825437 0.590169
328 19 2 -0.018412 0.0188344 0.899206 0.504171
329 19 2 -0.0543881 0.0199942 0.861299 0.54832
43 3 2 -0.0616365 0.494089 0.895368 0.402565
346 20 2 -0.018412 0.0077201 0.647563 0.465822
350 20 2 -0.0543881 0.0232952 0.753156 0.436707
338 19 1 0.0629322 0.0659022 0.837483 0.55911
898 50 1 0.0622985 0.835101 0.953317 0.34145
889 50 2 -0.0616365 0.80757 0.91518 0.359295
890 50 2 -0.0543881 0.830107 0.854147 0.354967
900 50 1 0.0629322 0.857049 0.730639 0.345738
342 19 1 0.0629322 0.920454 0.992863 0.434636
341 19 1 0.0629322 0.860677 0.940915 0.503912
572 32 1 0.0629322 0.523542 0.666315 0.652567
464 26 1 0.0629322 0.501294 0.728774 0.34665
463 26 1 0.0629322 0.543729 0.709164 0.436083
334 19 2 -0.0543881 0.963569 0.965864 0.444848
333 19 2 -0.018412 0.963989 0.926376 0.489403
332 19 2 -0.0543881 0.908078 0.918293 0.519149
340 19 1 0.0622985 0.86324 0.86599 0.585614
331 19 2 -0.0616365 0.908275 0.880275 0.562944
330 19 2 -0.0616365 0.964674 0.850482 0.577749
339 19 1 0.0622985 0.968212 0.81762 0.612419
306 17 1 0.0629322 0.528115 0.5918 0.411436
738 41 1 0.0629322 0.831636 0.508949 0.358435
897 50 1 0.0622985 0.733719 0.975572 0.38943
888 50 2 -0.0616365 0.752118 0.927667 0.387174
3 1 2 -0.0543881 0.64784 0.511017 0.575495
2 1 2 -0.0616365 0.606531 0.50572 0.532877
893 50 1 0.0622985 0.785193 0.641069 0.376046
759 43 2 -0.0543881 0.999724 0.532001 0.612434
769 43 1 0.0629322 0.94816 0.542011 0.613873
695 39 1 0.0622985 0.840141 0.528081 0.581585
770 43 1 0.0629322 0.978288 0.656296 0.623251
462 26 1 0.0622985 0.530923 0.685875 0.532529
13 1 1 0.0629322 0.674936 0.553604 0.5804
52 3 1 0.0622985 0.5464 0.89941 0.392385
51 3 1 0.0622985 0.505773 0.874545 0.487461
283 16 1 0.0629322 0.591148 0.824694 0.607383
12 1 1 0.0622985 0.606973 0.545069 0.502928
892 50 2 -0.0543881 0.813714 0.740616 0.368418
891 50 2 -0.018412 0.794304 0.803342 0.375538
886 50 2 -0.018412 0.740371 0.816902 0.406168
887 50 2 -0.0543881 0.719657 0.877199 0.410002
896 50 1 0.0629322 0.678619 0.886524 0.436059
356 20 1 0.0629322 0.91416 0.620518 0.492831
894 50 1 0.0622985 0.691125 0.662664 0.424062
884 50 2 -0.0616365 0.722243 0.703942 0.413354
883 50 2 -0.0616365 0.775147 0.692649 0.386278
885 50 2 -0.0543881 0.705992 0.767354 0.425545
895 50 1 0.0629322 0.658457 0.777402 0.446188
358 20 1 0.0622985 0.938831 0.806793 0.425377
349 20 2 -0.0616365 0.960763 0.763218 0.439213
348 20 2 -0.0616365 0.920327 0.71542 0.458282
347 20 2 -0.0543881 0.943771 0.657426 0.47375
357 20 1 0.0622985 0.867946 0.726763 0.463567
710 40 2 -0.0543881 0.813057 0.643445 0.659293
718 40 1 0.0622985 0.829551 0.634251 0.574256
709 40 2 -0.0616365 0.816836 0.665587 0.607857
708 40 2 -0.0616365 0.793334 0.724065 0.596257
717 40 1 0.0622985 0.789609 0.743212 0.553351
273 16 2 -0.0543881 0.597547 0.860733 0.638733
274 16 2 -0.018412 0.606001 0.923332 0.631068
284 16 1 0.0629322 0.597334 0.913705 0.545876
275 16 2 -0.0543881 0.603778 0.946492 0.581003
707 40 2 -0.0543881 0.767122 0.762851 0.633412
716 40 1 0.0629322 0.751752 0.811948 0.62104
571 32 1 0.0629322 0.532317 0.554963 0.62861
14 1 1 0.0629322 0.720913 0.508099 0.659688
800 45 2 -0.0543881 0.233871 0.429503 0.979348
799 45 2 -0.0616365 0.194472 0.376793 0.971243
680 38 1 0.0629322 0.271807 0.0245058 0.989883
813 46 2 -0.0543881 0.249951 0.458229 0.678884
430 24 1 0.0622985 0.202921 0.134392 0.669821
32 2 1 0.0629322 0.483737 0.0870274 0.737579
24 2 2 -0.0616365 0.463749 0.0231181 0.676086
23 2 2 -0.0543881 0.476186 0.0362723 0.729023
814 46 2 -0.018412 0.229146 0.398043 0.679321
823 46 1 0.0629322 0.222396 0.492793 0.702764
176 10 1 0.0629322 0.371445 0.104696 0.765726
168 10 2 -0.0616365 0.386613 0.205201 0.755739
177 10 1 0.0622985 0.437264 0.200597 0.736198
816 46 2 -0.0616365 0.157607 0.318466 0.708214
815 46 2 -0.0543881 0.174708 0.381746 0.70652
170 10 2 -0.0543881 0.309616 0.277192 0.785465
167 10 2 -0.0543881 0.3497 0.153634 0.769789
180 10 1 0.0629322 0.187615 0.286058 0.822923
171 10 2 -0.018412 0.269693 0.226824 0.798003
173 10 1 0.0622985 0.119691 0.198164 0.845752
163 10 2 -0.0616365 0.170193 0.189331 0.8315
172 10 2 -0.0543881 0.20823 0.239307 0.817114
164 10 2 -0.0616365 0.188798 0.127712 0.825986
174 10 1 0.0622985 0.156895 0.0847092 0.835227
166 10 2 -0.018412 0.289314 0.163226 0.790233
165 10 2 -0.0543881 0.247901 0.115032 0.806854
175 10 1 0.0629322 0.259994 0.0655673 0.796168
677 38 1 0.0622985 0.0423099 0.168455 0.936996
667 38 2 -0.0616365 0.080656 0.134095 0.948271
678 38 1 0.0622985 0.152623 0.204857 0.962188
668 38 2 -0.0616365 0.140184 0.154104 0.963027
159 9 1 0.0622985 0.413085 0.0790753 0.919114
798 45 2 -0.0616365 0.171346 0.364611 0.919143
807 45 1 0.0622985 0.143558 0.32468 0.909875
806 45 1 0.0629322 0.171818 0.397931 0.836616
684 38 1 0.0629322 0.0197303 0.053169 0.93832
676 38 2 -0.0543881 0.0676042 0.0689398 0.947266
669 38 2 -0.0543881 0.187583 0.112903 0.974839
179 10 1 0.0629322 0.298437 0.328066 0.79547
169 10 2 -0.0616365 0.367448 0.266745 0.764278
178 10 1 0.0622985 0.398539 0.306182 0.756223
150 9 2 -0.0616365 0.431786 0.126289 0.916513
151 9 2 -0.0616365 0.496986 0.138083 0.91312
158 9 1 0.0629322 0.33853 0.171435 0.922414
149 9 2 -0.0543881 0.392 0.176384 0.917874