ITEM: TIMESTEP
0
ITEM: NUMBER OF ATOMS
900
ITEM: BOX BOUNDS pp pp pp
6.8408488417770741e-01 2.1305508115822214e+01
6.8408488417770741e-01 2.1305508115822214e+01
1.0872933723188230e+03 1.1116659196811770e+03
ITEM: ATOMS id mol type q xs ys zs
492 28 2 -0.0616365 0.178038 0.194634 0.171856
494 28 2 -0.0543881 0.154739 0.140798 0.255128
495 28 2 -0.018412 0.0917083 0.149403 0.245389
491 28 2 -0.0543881 0.115253 0.202434 0.165585
599 34 2 -0.0543881 0.153722 0.327161 0.284881
598 34 2 -0.018412 0.113707 0.347097 0.243798
597 34 2 -0.0543881 0.135011 0.385876 0.204245
753 42 1 0.0622985 0.45989 0.131097 0.240988
754 42 1 0.0622985 0.386443 0.190456 0.284941
745 42 2 -0.0616365 0.411936 0.214682 0.251403
744 42 2 -0.0616365 0.458808 0.177413 0.228847
743 42 2 -0.0543881 0.495496 0.203151 0.18701
746 42 2 -0.0543881 0.401021 0.274027 0.234191
755 42 1 0.0629322 0.368688 0.301785 0.258105
607 34 1 0.0629322 0.182757 0.401912 0.203405
596 34 2 -0.0616365 0.0947872 0.402978 0.160491
606 34 1 0.0622985 0.111822 0.431717 0.126183
595 34 2 -0.0616365 0.0339035 0.379361 0.159999
756 42 1 0.0629322 0.385063 0.39103 0.196261
742 42 2 -0.018412 0.480633 0.263213 0.168412
747 42 2 -0.018412 0.435312 0.29808 0.190987
748 42 2 -0.0543881 0.42535 0.360755 0.176156
739 42 2 -0.0616365 0.464623 0.390475 0.138718
501 28 1 0.0622985 0.214054 0.211906 0.143426
500 28 1 0.0629322 0.0998789 0.23247 0.12903
159 9 1 0.0622985 0.331379 0.20064 0.119531
158 9 1 0.0629322 0.28044 0.299598 0.124937
149 9 2 -0.0543881 0.319272 0.293273 0.093764
157 9 1 0.0629322 0.274485 0.409331 0.093228
670 38 2 -0.018412 0.0696006 0.0840762 0.0162301
675 38 2 -0.018412 0.00575685 0.0998606 0.015667
671 38 2 -0.0543881 0.0862516 0.0200249 0.013581
490 28 2 -0.018412 0.0712156 0.1789 0.200403
603 34 2 -0.018412 0.0501625 0.32762 0.244199
489 28 2 -0.0543881 0.00799614 0.183038 0.190029
604 34 2 -0.0543881 0.0131028 0.341112 0.201188
667 38 2 -0.0616365 0.0380699 0.20802 0.0211204
834 47 2 -0.0616365 0.135405 0.0192224 0.166783
843 47 1 0.0622985 0.0928972 0.0259327 0.143342
608 34 1 0.0629322 0.204522 0.342288 0.284859
600 34 2 -0.0616365 0.131258 0.293388 0.327586
150 9 2 -0.0616365 0.345978 0.236964 0.0902301
151 9 2 -0.0616365 0.392147 0.225605 0.0537289
148 9 2 -0.018412 0.338943 0.344797 0.0621614
147 9 2 -0.0543881 0.317269 0.405169 0.0665048
153 9 2 -0.018412 0.388974 0.334767 0.0259389
160 9 1 0.0622985 0.415292 0.179105 0.0486178
152 9 2 -0.0543881 0.415266 0.274898 0.023099
602 34 2 -0.0543881 0.028933 0.291606 0.285572
677 38 1 0.0622985 0.0209345 0.258449 0.0253677
840 47 1 0.0622985 0.404766 0.0693616 0.153854
841 47 1 0.0629322 0.292469 0.0803438 0.105571
830 47 2 -0.0616365 0.360424 0.0481474 0.169565
831 47 2 -0.0543881 0.302266 0.056462 0.145613
832 47 2 -0.018412 0.249232 0.030978 0.167287
833 47 2 -0.0543881 0.190863 0.0387447 0.14252
842 47 1 0.0629322 0.186637 0.0679738 0.105285
493 28 2 -0.0616365 0.198029 0.164757 0.218345
502 28 1 0.0622985 0.24994 0.166175 0.229162
669 38 2 -0.0543881 0.117139 0.129832 0.0196966
679 38 1 0.0629322 0.166281 0.113582 0.0217171
678 38 1 0.0622985 0.136513 0.230962 0.0225214
668 38 2 -0.0616365 0.10052 0.193924 0.0209544
146 9 2 -0.0616365 0.340905 0.457122 0.0394843
605 34 1 0.0622985 0.0019602 0.390131 0.125053
496 28 2 -0.0543881 0.0501073 0.123855 0.284026
140 8 1 0.0629322 0.497009 0.418522 0.323492
504 28 1 0.0629322 0.0707759 0.0973786 0.318622
749 42 1 0.0622985 0.456231 0.441022 0.132074
808 45 1 0.0622985 0.157634 0.494559 0.0695717
829 47 2 -0.0616365 0.361048 0.0184952 0.21765
837 47 2 -0.018412 0.247414 0.00154035 0.216583
839 47 1 0.0622985 0.40632 0.00967877 0.236108
601 34 2 -0.0616365 0.0677324 0.275516 0.32582
503 28 1 0.0629322 0.169069 0.113955 0.291648
101 6 1 0.0622985 0.0376515 0.486186 0.27071
680 38 1 0.0629322 0.135408 0.000289404 0.0151162
145 9 2 -0.0616365 0.388113 0.445686 0.00347151
214 12 1 0.0622985 0.0178392 0.365131 0.0144438
741 42 2 -0.0543881 0.515987 0.291164 0.129748
740 42 2 -0.0616365 0.509143 0.355838 0.114058
752 42 1 0.0629322 0.535635 0.172873 0.170071
499 28 1 0.0629322 0.990584 0.209986 0.156324
206 12 2 -0.0543881 0.977495 0.458917 0.0255068
215 12 1 0.0629322 0.951766 0.443358 0.0629037
751 42 1 0.0629322 0.555235 0.26463 0.109204
674 38 2 -0.0543881 0.959178 0.0541906 0.010738
233 13 1 0.0629322 0.592036 0.126511 0.227334
223 13 2 -0.0616365 0.569512 0.0385459 0.270128
488 28 2 -0.0616365 0.967701 0.163936 0.230512
612 34 1 0.0629322 0.963001 0.324806 0.200654
108 6 1 0.0629322 0.934071 0.427532 0.269514
750 42 1 0.0622985 0.546086 0.37551 0.0868516
142 8 1 0.0622985 0.611334 0.281437 0.239524
234 13 1 0.0629322 0.700964 0.163224 0.209377
224 13 2 -0.0543881 0.610084 0.0859016 0.251489
226 13 2 -0.0543881 0.716621 0.12401 0.236823
217 13 2 -0.0616365 0.780151 0.122071 0.250863
792 44 1 0.0629322 0.579012 0.0062782 0.106985
225 13 2 -0.018412 0.676265 0.0805966 0.260207
784 44 2 -0.0543881 0.623566 0.000537645 0.125048
220 13 2 -0.018412 0.698241 0.0325233 0.294834
219 13 2 -0.0543881 0.76201 0.0302193 0.306369
218 13 2 -0.0616365 0.803314 0.0753562 0.284787
785 44 1 0.0622985 0.663251 0.0764549 0.081766
228 13 1 0.0622985 0.855255 0.0763718 0.29145
611 34 1 0.0629322 0.98005 0.275842 0.286082
227 13 1 0.0622985 0.812058 0.158772 0.231649
143 8 1 0.0629322 0.652681 0.363988 0.180177
134 8 2 -0.0543881 0.613244 0.378646 0.210671
133 8 2 -0.0616365 0.595237 0.331294 0.243525
107 6 1 0.0629322 0.830943 0.411582 0.238945
100 6 2 -0.0543881 0.939461 0.473167 0.248136
141 8 1 0.0622985 0.535605 0.313856 0.312923
132 8 2 -0.0616365 0.552962 0.346963 0.283279
684 38 1 0.0629322 0.942693 0.177919 0.0185697
126 7 1 0.0629322 0.682098 0.363796 0.0851248
683 38 1 0.0629322 0.906921 0.069085 0.0128967
131 8 2 -0.0543881 0.530716 0.409707 0.288594
737 41 1 0.0629322 0.746723 0.364125 0.301513
487 28 2 -0.0616365 0.987619 0.133096 0.276491
497 28 1 0.0622985 0.951907 0.121288 0.309286
498 28 1 0.0622985 0.916136 0.17458 0.226602
119 7 1 0.0622985 0.618241 0.339591 0.00634048
676 38 2 -0.0543881 0.992298 0.162423 0.0187505
125 7 1 0.0629322 0.7705 0.348183 0.147851
118 7 2 -0.0543881 0.690339 0.320165 0.0642387
109 7 2 -0.0616365 0.654091 0.303415 0.0235663
98 6 2 -0.0543881 0.833071 0.459874 0.220619
97 6 2 -0.0616365 0.7805 0.482708 0.192989
106 6 1 0.0622985 0.734085 0.459329 0.195822
99 6 2 -0.018412 0.88659 0.494377 0.219876
736 41 1 0.0622985 0.808192 0.274643 0.264241
124 7 1 0.0622985 0.856012 0.275504 0.177247
115 7 2 -0.0616365 0.825439 0.25921 0.145688
116 7 2 -0.0543881 0.774443 0.301372 0.128563
117 7 2 -0.018412 0.735764 0.281821 0.0857775
135 8 2 -0.018412 0.591501 0.441575 0.213061
130 8 2 -0.018412 0.548926 0.456599 0.25337
727 41 2 -0.0616365 0.816693 0.289877 0.3062
408 23 1 0.0622985 0.709576 0.189224 0.329192
775 44 2 -0.0616365 0.671686 0.0402002 0.113474
83 5 1 0.0622985 0.909652 0.0165971 0.227468
776 44 2 -0.0616365 0.731847 0.0314011 0.137158
144 8 1 0.0629322 0.645217 0.480787 0.147177
136 8 2 -0.0543881 0.607154 0.488781 0.179508
786 44 1 0.0622985 0.772956 0.0634026 0.126205
533 30 1 0.0622985 0.51443 0.0357481 0.0383622
728 41 2 -0.0543881 0.784169 0.342211 0.324537
735 41 1 0.0622985 0.894005 0.223137 0.317526
232 13 1 0.0622985 0.516904 0.0412994 0.263989
112 7 2 -0.018412 0.742927 0.222239 0.0624598
111 7 2 -0.0543881 0.706647 0.203146 0.0187674
123 7 1 0.0622985 0.871437 0.173552 0.13067
114 7 2 -0.0616365 0.828975 0.203212 0.120005
113 7 2 -0.0543881 0.789422 0.182116 0.0809417
122 7 1 0.0629322 0.796893 0.132609 0.0630607
121 7 1 0.0629322 0.713557 0.153467 0.000994005
523 30 2 -0.0616365 0.540816 0.0296921 0.000738023
394 22 1 0.0622985 0.520058 0.497884 0.0566577
587 33 1 0.0622985 0.136637 0.521692 0.279993
835 47 2 -0.0616365 0.134296 0.990197 0.215793
844 47 1 0.0622985 0.0913043 0.96798 0.232924
139 8 1 0.0629322 0.484422 0.532493 0.286167
672 38 2 -0.0616365 0.0388488 0.973914 0.010717
836 47 2 -0.0543881 0.193433 0.979364 0.241136
845 47 1 0.0629322 0.202341 0.949375 0.278423
448 25 1 0.0622985 0.328841 0.959247 0.0288807
447 25 1 0.0622985 0.294059 0.926968 0.12159
439 25 2 -0.0616365 0.352439 0.919144 0.0496136
681 38 1 0.0622985 0.054434 0.922767 0.0101296
594 33 1 0.0629322 0.226598 0.525881 0.217974
438 25 2 -0.0616365 0.333605 0.899939 0.100971
586 33 2 -0.0543881 0.229372 0.555229 0.256348
593 33 1 0.0629322 0.324228 0.573806 0.187809
437 25 2 -0.0543881 0.359773 0.848806 0.127687
446 25 1 0.0629322 0.339389 0.831192 0.16645
577 33 2 -0.0616365 0.176116 0.557304 0.288774
440 25 2 -0.0543881 0.401691 0.887779 0.0265272
436 25 2 -0.018412 0.409697 0.820366 0.106202
441 25 2 -0.018412 0.4306 0.839455 0.0548864
809 45 1 0.0629322 0.0973989 0.578303 0.107271
585 33 2 -0.018412 0.281013 0.58997 0.265342
580 33 2 -0.018412 0.286006 0.625946 0.312408
584 33 2 -0.0543881 0.329051 0.595302 0.227939
838 47 2 -0.0543881 0.304647 0.998083 0.242967
581 33 2 -0.0543881 0.337983 0.659871 0.324646
582 33 2 -0.0616365 0.385956 0.661578 0.287441
583 33 2 -0.0616365 0.380882 0.631658 0.238556
591 33 1 0.0622985 0.429262 0.68899 0.296459
80 5 2 -0.0543881 0.00774053 0.831089 0.277695
78 5 2 -0.0616365 0.0230172 0.751706 0.21311
79 5 2 -0.0616365 0.0285329 0.77301 0.264806
195 11 1 0.0622985 0.139267 0.858778 0.187279
196 11 1 0.0622985 0.120849 0.902928 0.0947529
186 11 2 -0.0616365 0.164088 0.8389 0.151821
187 11 2 -0.0616365 0.154149 0.864557 0.101791
194 11 1 0.0629322 0.211056 0.772525 0.200802
184 11 2 -0.018412 0.234726 0.765644 0.116531
185 11 2 -0.0543881 0.205592 0.789059 0.160647
189 11 2 -0.018412 0.223589 0.784256 0.0642549
193 11 1 0.0629322 0.277739 0.699169 0.167497
183 11 2 -0.0543881 0.275136 0.715297 0.124599
592 33 1 0.0622985 0.417129 0.629361 0.207276
87 5 1 0.0622985 0.0325459 0.704195 0.200149
92 6 2 -0.0616365 0.000987926 0.560085 0.217081
102 6 1 0.0622985 0.0464806 0.592426 0.21412
89 5 1 0.0629322 0.0171648 0.844933 0.319653
846 47 1 0.0629322 0.307244 0.975285 0.284836
53 3 1 0.0629322 0.297274 0.767934 0.248333
799 45 2 -0.0616365 0.152375 0.539075 0.0457638
800 45 2 -0.0543881 0.11846 0.585631 0.0675379
54 3 1 0.0629322 0.190296 0.758326 0.292452
445 25 1 0.0629322 0.421706 0.74852 0.168209
435 25 2 -0.0543881 0.43844 0.767208 0.128254
442 25 2 -0.0543881 0.480421 0.809502 0.0315827
188 11 2 -0.0543881 0.186316 0.837005 0.0586144
197 11 1 0.0629322 0.179898 0.855877 0.0180067
801 45 2 -0.018412 0.108772 0.640123 0.0392693
434 25 2 -0.0616365 0.489677 0.740808 0.105628
88 5 1 0.0622985 0.0472024 0.740502 0.295683
46 3 2 -0.0543881 0.206093 0.793668 0.323159
45 3 2 -0.018412 0.267108 0.819719 0.321944
44 3 2 -0.0543881 0.308692 0.803908 0.281743
42 3 2 -0.0616365 0.387475 0.869988 0.321318
43 3 2 -0.0616365 0.368447 0.828075 0.283512
52 3 1 0.0622985 0.405856 0.815466 0.258089
51 3 1 0.0622985 0.436857 0.887628 0.323676
156 9 1 0.0622985 0.32346 0.50816 0.0453327
393 22 1 0.0622985 0.439786 0.595609 0.0679089
182 11 2 -0.0616365 0.300999 0.685446 0.0825293
192 11 1 0.0622985 0.33001 0.63955 0.0891071
384 22 2 -0.0616365 0.47167 0.5875 0.0323647
392 22 1 0.0629322 0.438035 0.674729 0.000835605
181 11 2 -0.0616365 0.291343 0.706203 0.033045
190 11 2 -0.0543881 0.251064 0.755312 0.0230836
810 45 1 0.0629322 0.0474813 0.684311 0.0999122
802 45 2 -0.0543881 0.0722031 0.688702 0.0609545
793 45 2 -0.0616365 0.0611894 0.74228 0.0337058
803 45 1 0.0622985 0.0303664 0.782128 0.0484285
222 13 2 -0.0616365 0.590063 0.991022 0.30578
791 44 1 0.0629322 0.543522 0.907203 0.151355
221 13 2 -0.0543881 0.655296 0.991348 0.317972
229 13 1 0.0629322 0.780483 0.992185 0.330564
519 29 1 0.0622985 0.72278 0.501623 0.0564795
510 29 2 -0.0616365 0.737396 0.535007 0.0229026
91 6 2 -0.0616365 0.997336 0.505595 0.247241
673 38 2 -0.0616365 0.975252 0.990712 0.00864138
790 44 1 0.0622985 0.56012 0.825843 0.216228
75 5 2 -0.0543881 0.948501 0.887949 0.149582
85 5 1 0.0629322 0.937291 0.874796 0.106963
81 5 2 -0.018412 0.982443 0.872658 0.24115
76 5 2 -0.018412 0.976997 0.849403 0.188485
77 5 2 -0.0543881 0.99949 0.790328 0.174997
86 5 1 0.0629322 0.991262 0.771493 0.134967
207 12 2 -0.018412 0.97087 0.517043 0.00677471
781 44 2 -0.0616365 0.596799 0.857471 0.208252
782 44 2 -0.0543881 0.589019 0.90645 0.171468
783 44 2 -0.018412 0.635141 0.950588 0.159912
216 12 1 0.0629322 0.913228 0.549096 0.0728344
789 44 1 0.0622985 0.65472 0.809051 0.258624
73 5 2 -0.0616365 0.932422 0.969429 0.216569
74 5 2 -0.0616365 0.926476 0.945106 0.165741
84 5 1 0.0622985 0.907449 0.977686 0.134383
82 5 2 -0.0543881 0.960374 0.93167 0.254182
90 5 1 0.0629322 0.960771 0.948875 0.295544
103 6 1 0.0629322 0.955226 0.628832 0.165974
93 6 2 -0.0543881 0.947718 0.581961 0.187668
780 44 2 -0.0616365 0.653897 0.84702 0.230975
779 44 2 -0.0543881 0.698919 0.893634 0.219725
778 44 2 -0.018412 0.692792 0.942492 0.184008
777 44 2 -0.0543881 0.740461 0.984946 0.172899
788 44 1 0.0629322 0.745304 0.887456 0.242449
682 38 1 0.0622985 0.936983 0.953889 0.00726146
96 6 2 -0.0616365 0.785475 0.537162 0.163039
105 6 1 0.0622985 0.745617 0.553752 0.138378
555 31 1 0.0622985 0.690209 0.686736 0.208236
94 6 2 -0.018412 0.891813 0.549134 0.189715
787 44 1 0.0629322 0.787019 0.976989 0.192143
127 8 2 -0.0616365 0.586847 0.549468 0.18645
137 8 1 0.0622985 0.604758 0.588203 0.160899
104 6 1 0.0629322 0.848575 0.611487 0.13448
95 6 2 -0.0543881 0.840451 0.56843 0.161772
129 8 2 -0.0543881 0.522939 0.518003 0.257208
128 8 2 -0.0616365 0.541961 0.564223 0.223972
138 8 1 0.0622985 0.520609 0.61374 0.227507
646 36 1 0.0622985 0.688701 0.746705 0.0882546
444 25 1 0.0622985 0.509034 0.696917 0.122899
645 36 1 0.0622985 0.792973 0.704402 0.0677594
636 36 2 -0.0616365 0.782887 0.75095 0.0512157
635 36 2 -0.0543881 0.827475 0.779936 0.0225455
637 36 2 -0.0616365 0.723824 0.776502 0.0663323
634 36 2 -0.018412 0.813338 0.838825 0.0017008
647 36 1 0.0629322 0.66919 0.862723 0.0549303
638 36 2 -0.0543881 0.712099 0.836476 0.0456026
639 36 2 -0.018412 0.755247 0.86802 0.015154
558 31 1 0.0629322 0.944433 0.67551 0.306727
556 31 1 0.0622985 0.782008 0.757442 0.1903
557 31 1 0.0629322 0.882651 0.741216 0.241215
547 31 2 -0.0616365 0.786976 0.718717 0.219973
548 31 2 -0.0543881 0.842341 0.708047 0.248584
550 31 2 -0.0543881 0.905147 0.644833 0.313488
543 31 2 -0.0543881 0.798172 0.575066 0.330339
549 31 2 -0.018412 0.847913 0.657812 0.284115
546 31 2 -0.0616365 0.736334 0.68095 0.226924
544 31 2 -0.018412 0.796637 0.620884 0.292312
545 31 2 -0.0543881 0.741694 0.632931 0.264992
554 31 1 0.0629322 0.698433 0.605308 0.270438
644 36 1 0.0629322 0.87601 0.761008 0.0210043
509 29 2 -0.0543881 0.709153 0.592079 0.0152679
518 29 1 0.0629322 0.668824 0.60717 0.0416006
208 12 2 -0.0543881 0.937095 0.560792 0.0345006
209 12 1 0.0622985 0.90288 0.656739 0.0358563
199 12 2 -0.0616365 0.928168 0.61913 0.0139216
433 25 2 -0.0616365 0.510122 0.759324 0.0568833
231 13 1 0.0622985 0.559871 0.957091 0.327704
385 22 2 -0.0616365 0.514192 0.537179 0.0271511
648 36 1 0.0629322 0.697664 0.95362 0.00844527
443 25 1 0.0622985 0.553224 0.738476 0.0400781
540 30 1 0.0629322 0.549611 0.929807 0.0161301
318 18 1 0.0622985 0.310043 0.292774 0.351789
857 48 1 0.0622985 0.346625 0.0876241 0.362808
235 14 2 -0.0616365 0.329914 0.471404 0.375121
245 14 1 0.0622985 0.327792 0.498657 0.335809
864 48 1 0.0629322 0.45808 0.112549 0.345402
252 14 1 0.0629322 0.426035 0.479264 0.375767
246 14 1 0.0622985 0.2289 0.480452 0.387914
236 14 2 -0.0616365 0.275057 0.465339 0.403328
308 18 2 -0.0616365 0.33601 0.272634 0.386664
317 18 1 0.0622985 0.254169 0.24112 0.425077
247 14 1 0.0629322 0.232999 0.428125 0.473063
237 14 2 -0.0543881 0.279315 0.43113 0.448811
847 48 2 -0.0616365 0.38281 0.0751395 0.391381
856 48 2 -0.0543881 0.444596 0.0919719 0.384829
858 48 1 0.0622985 0.314101 0.0323506 0.440114
244 14 2 -0.0543881 0.386296 0.458566 0.39778
307 18 2 -0.0616365 0.302548 0.243794 0.426186
319 18 1 0.0629322 0.425469 0.300516 0.36288
848 48 2 -0.0616365 0.363343 0.0464013 0.437245
609 34 1 0.0622985 0.161012 0.282093 0.364674
248 14 1 0.0629322 0.301659 0.359331 0.547997
309 18 2 -0.0543881 0.399872 0.272656 0.3926
850 48 2 -0.018412 0.470123 0.0412971 0.468982
855 48 2 -0.018412 0.490216 0.0762169 0.425013
849 48 2 -0.0543881 0.405887 0.0269886 0.474568
324 18 1 0.0629322 0.298452 0.196044 0.499251
316 18 2 -0.0543881 0.331143 0.215365 0.469506
62 4 2 -0.0543881 0.0546551 0.152308 0.439525
71 4 1 0.0629322 0.031705 0.161521 0.399978
323 18 1 0.0629322 0.395165 0.165582 0.550057
61 4 2 -0.0616365 0.119056 0.16548 0.445255
70 4 1 0.0622985 0.149024 0.181328 0.411029
257 15 2 -0.0543881 0.150086 0.285509 0.622082
266 15 1 0.0629322 0.194209 0.291874 0.641349
256 15 2 -0.018412 0.0927666 0.271365 0.650486
60 4 2 -0.0616365 0.143386 0.152587 0.495743
69 4 1 0.0622985 0.194785 0.163922 0.501688
314 18 2 -0.0543881 0.422895 0.185466 0.517462
267 15 1 0.0622985 0.188832 0.307829 0.543312
258 15 2 -0.0616365 0.145592 0.295432 0.566553
313 18 2 -0.0616365 0.488788 0.187466 0.520812
311 18 2 -0.0543881 0.4951 0.241257 0.440332
310 18 2 -0.018412 0.430993 0.244323 0.434889
315 18 2 -0.018412 0.393889 0.215034 0.475801
249 14 1 0.0622985 0.406774 0.329651 0.575277
240 14 2 -0.0616365 0.401454 0.35884 0.539756
239 14 2 -0.0543881 0.342654 0.373269 0.52273
243 14 2 -0.018412 0.388967 0.423393 0.44545
242 14 2 -0.0543881 0.448398 0.407031 0.46495
241 14 2 -0.0616365 0.453153 0.374899 0.512915
238 14 2 -0.018412 0.335362 0.409075 0.474377
261 15 2 -0.018412 0.0351299 0.269302 0.623875
59 4 2 -0.0543881 0.106982 0.129023 0.538015
68 4 1 0.0629322 0.127999 0.119915 0.579078
418 24 2 -0.018412 0.334777 0.0698805 0.650063
419 24 2 -0.0543881 0.34012 0.132765 0.664125
428 24 1 0.0629322 0.384598 0.159757 0.664467
610 34 1 0.0622985 0.0513199 0.250635 0.361137
58 4 2 -0.018412 0.0423423 0.119134 0.530204
63 4 2 -0.018412 0.0154375 0.131008 0.480854
57 4 2 -0.0543881 0.00514291 0.0957485 0.569977
67 4 1 0.0629322 0.02428 0.0881745 0.611286
427 24 1 0.0629322 0.433245 0.0640321 0.62317
335 19 1 0.0622985 0.193261 0.0353369 0.43643
259 15 2 -0.0616365 0.0892131 0.291327 0.542326
268 15 1 0.0622985 0.0845983 0.298693 0.501566
260 15 2 -0.0543881 0.0347469 0.279002 0.570012
353 20 1 0.0622985 0.108349 0.411777 0.47313
773 43 1 0.0629322 0.144867 0.451414 0.606695
325 19 2 -0.0616365 0.15008 0.0110053 0.453601
417 24 2 -0.0543881 0.386529 0.0389067 0.6291
342 19 1 0.0629322 0.100498 0.0153862 0.379927
250 14 1 0.0622985 0.498934 0.356474 0.525225
251 14 1 0.0629322 0.493521 0.416626 0.443274
774 43 1 0.0629322 0.0398348 0.425002 0.627403
766 43 2 -0.0543881 0.0262086 0.477158 0.628683
343 20 2 -0.0616365 0.0815729 0.459526 0.475239
336 19 1 0.0622985 0.194658 0.00171184 0.529719
344 20 2 -0.0616365 0.0183895 0.463491 0.489793
423 24 2 -0.018412 0.277751 0.0378512 0.656474
854 48 2 -0.0543881 0.55666 0.0897077 0.419397
322 18 1 0.0622985 0.513788 0.161837 0.557457
851 48 2 -0.0543881 0.512413 0.0242114 0.507368
312 18 2 -0.0616365 0.524509 0.217406 0.482879
861 48 1 0.0622985 0.611502 0.0137629 0.528927
852 48 2 -0.0616365 0.576936 0.0329542 0.499425
262 15 2 -0.0543881 0.981595 0.254104 0.653084
410 23 1 0.0629322 0.603338 0.360041 0.404177
738 41 1 0.0629322 0.721008 0.441191 0.370614
853 48 2 -0.0616365 0.597071 0.0674239 0.457097
321 18 1 0.0622985 0.578073 0.218554 0.484263
411 23 1 0.0622985 0.596103 0.402443 0.49838
320 18 1 0.0629322 0.524524 0.265343 0.409867
767 43 1 0.0622985 0.926613 0.465044 0.64347
757 43 2 -0.0616365 0.966584 0.496942 0.633511
863 48 1 0.0629322 0.569448 0.114641 0.382886
725 41 2 -0.0543881 0.878745 0.288328 0.385391
729 41 2 -0.018412 0.795271 0.36525 0.375898
726 41 2 -0.0616365 0.866664 0.264472 0.33548
734 41 1 0.0629322 0.918495 0.266897 0.405852
724 41 2 -0.018412 0.840995 0.33702 0.406599
862 48 1 0.0622985 0.648048 0.0816213 0.453135
402 23 2 -0.0616365 0.627152 0.363036 0.487785
412 23 1 0.0622985 0.660156 0.368704 0.567347
403 23 2 -0.0616365 0.664249 0.340457 0.530111
401 23 2 -0.0543881 0.629576 0.335504 0.4393
733 41 1 0.0629322 0.884277 0.334571 0.485789
723 41 2 -0.0543881 0.849382 0.358854 0.459551
413 23 1 0.0629322 0.736994 0.273214 0.555493
404 23 2 -0.0543881 0.705449 0.290122 0.520814
414 23 1 0.0629322 0.785059 0.194051 0.490867
269 15 1 0.0629322 0.990327 0.272923 0.544608
400 23 2 -0.018412 0.670244 0.286251 0.42992
405 23 2 -0.018412 0.708522 0.262105 0.469624
730 41 2 -0.0543881 0.758475 0.414737 0.396289
64 4 2 -0.0543881 0.952932 0.119722 0.470593
399 23 2 -0.0543881 0.669925 0.258271 0.380767
409 23 1 0.0629322 0.639788 0.273057 0.347167
398 23 2 -0.0616365 0.709669 0.209155 0.371022
72 4 1 0.0629322 0.932902 0.122124 0.428948
65 4 1 0.0622985 0.866602 0.077638 0.509176
55 4 2 -0.0616365 0.916635 0.0921736 0.511919
56 4 2 -0.0616365 0.942038 0.0860327 0.562386
66 4 1 0.0622985 0.919677 0.0711974 0.597783
270 15 1 0.0629322 0.936699 0.249608 0.628699
397 23 2 -0.0616365 0.747816 0.183662 0.410574
407 23 1 0.0622985 0.779268 0.142506 0.406636
406 23 2 -0.0543881 0.748839 0.212019 0.460386
731 41 1 0.0622985 0.738158 0.475822 0.463145
721 41 2 -0.0616365 0.766149 0.435065 0.448422
722 41 2 -0.0616365 0.810004 0.405952 0.482829
696 39 1 0.0622985 0.698686 0.35484 0.648539
695 39 1 0.0622985 0.818881 0.364302 0.659075
11 1 1 0.0622985 0.56532 0.443364 0.635445
32 2 1 0.0629322 0.651487 0.158124 0.597931
23 2 2 -0.0543881 0.6702 0.112933 0.612048
732 41 1 0.0622985 0.811569 0.419481 0.524625
33 2 1 0.0622985 0.756241 0.122599 0.561657
24 2 2 -0.0616365 0.726224 0.0943291 0.592797
354 20 1 0.0622985 0.992037 0.4195 0.501388
34 2 1 0.0622985 0.798675 0.0249597 0.590527
25 2 2 -0.0616365 0.752574 0.037934 0.606934
22 2 2 -0.018412 0.638036 0.0753357 0.649276
27 2 2 -0.018412 0.667331 0.0207799 0.666158
31 2 1 0.0629322 0.55795 0.139284 0.659088
18 1 1 0.0629322 0.500455 0.343076 0.632922
578 33 2 -0.0616365 0.179394 0.59158 0.335222
579 33 2 -0.0543881 0.233201 0.623983 0.347018
590 33 1 0.0629322 0.343966 0.685712 0.362669
860 48 1 0.0629322 0.491844 0.998715 0.542621
859 48 1 0.0629322 0.390491 0.997889 0.510245
764 43 2 -0.0543881 0.133976 0.501312 0.605586
765 43 2 -0.018412 0.0730762 0.520429 0.61608
334 19 2 -0.0543881 0.0990451 0.999738 0.422058
588 33 1 0.0622985 0.137798 0.591333 0.361219
589 33 1 0.0629322 0.231045 0.654032 0.3843
47 3 1 0.0622985 0.113489 0.803116 0.358842
37 3 2 -0.0616365 0.165442 0.818225 0.360461
302 17 1 0.0629322 0.467175 0.626914 0.584469
416 24 2 -0.0616365 0.385409 0.974569 0.619849
426 24 1 0.0622985 0.427055 0.948246 0.605517
763 43 2 -0.0616365 0.180187 0.544002 0.591402
772 43 1 0.0622985 0.230867 0.529398 0.581392
761 43 2 -0.0543881 0.109616 0.627592 0.599622
326 19 2 -0.0616365 0.151631 0.993909 0.505067
360 20 1 0.0629322 0.160699 0.510789 0.457473
352 20 2 -0.0543881 0.112233 0.513889 0.467817
467 26 1 0.0629322 0.344313 0.738954 0.460931
458 26 2 -0.0543881 0.382242 0.762952 0.486638
327 19 2 -0.0543881 0.097793 0.97164 0.527637
337 19 1 0.0629322 0.102241 0.955608 0.569724
359 20 1 0.0629322 0.159652 0.626162 0.451276
48 3 1 0.0622985 0.154943 0.87631 0.434379
459 26 2 -0.018412 0.390878 0.760762 0.542751
49 3 1 0.0629322 0.263401 0.909701 0.433488
38 3 2 -0.0616365 0.184387 0.858818 0.39957
39 3 2 -0.0543881 0.247857 0.878612 0.399245
40 3 2 -0.018412 0.288083 0.862995 0.361675
41 3 2 -0.0543881 0.347625 0.884852 0.362739
454 26 2 -0.018412 0.436163 0.799998 0.565377
460 26 2 -0.0543881 0.350711 0.723111 0.571983
468 26 1 0.0629322 0.312847 0.686748 0.553839
351 20 2 -0.018412 0.0799239 0.570902 0.472584
453 26 2 -0.0543881 0.43592 0.802085 0.619798
461 26 1 0.0622985 0.322478 0.696166 0.65107
452 26 2 -0.0616365 0.398695 0.766095 0.651404
451 26 2 -0.0616365 0.356291 0.726185 0.62747
328 19 2 -0.018412 0.0435855 0.962443 0.497346
350 20 2 -0.0543881 0.110173 0.627765 0.463317
358 20 1 0.0622985 0.0971473 0.726621 0.45255
349 20 2 -0.0616365 0.0740828 0.682263 0.462833
463 26 1 0.0629322 0.468021 0.836889 0.641554
771 43 1 0.0622985 0.207726 0.635892 0.568428
762 43 2 -0.0616365 0.168327 0.606685 0.585849
50 3 1 0.0629322 0.360781 0.913557 0.397786
333 19 2 -0.018412 0.0439508 0.975975 0.444345
301 17 1 0.0629322 0.425623 0.610387 0.489774
770 43 1 0.0629322 0.099859 0.678372 0.589102
456 26 2 -0.0616365 0.468474 0.834676 0.479062
466 26 1 0.0622985 0.421813 0.797566 0.413964
455 26 2 -0.0543881 0.472567 0.839671 0.53159
457 26 2 -0.0616365 0.424889 0.797439 0.457982
300 17 1 0.0622985 0.446383 0.609574 0.392907
760 43 2 -0.018412 0.0596843 0.585981 0.61437
346 20 2 -0.018412 0.0142213 0.573025 0.488231
348 20 2 -0.0616365 0.012402 0.685202 0.479248
290 17 2 -0.0616365 0.483641 0.596649 0.424055
291 17 2 -0.0543881 0.475031 0.601606 0.477006
465 26 1 0.0622985 0.493784 0.868829 0.451069
415 24 2 -0.0616365 0.328969 0.940419 0.626047
425 24 1 0.0622985 0.327326 0.888439 0.621625
424 24 2 -0.0543881 0.276823 0.972547 0.644069
879 49 1 0.0622985 0.248083 0.774776 0.649209
432 24 1 0.0629322 0.232828 0.943971 0.651723
871 49 2 -0.0616365 0.152789 0.799012 0.664299
880 49 1 0.0622985 0.157659 0.846859 0.643269
230 13 1 0.0629322 0.672903 0.953017 0.344032
896 50 1 0.0629322 0.7704 0.857033 0.345477
895 50 1 0.0629322 0.662015 0.848687 0.366214
894 50 1 0.0622985 0.575694 0.792827 0.40944
884 50 2 -0.0616365 0.62448 0.771754 0.409904
885 50 2 -0.0543881 0.673236 0.802466 0.387678
26 2 2 -0.0543881 0.723241 0.999446 0.645139
303 17 1 0.0622985 0.560205 0.60168 0.648643
329 19 2 -0.0543881 0.990724 0.936445 0.522351
338 19 1 0.0629322 0.990807 0.928432 0.56433
330 19 2 -0.0616365 0.935681 0.927526 0.493434
551 31 1 0.0622985 0.950411 0.588415 0.372384
542 31 2 -0.0616365 0.852998 0.562645 0.359111
541 31 2 -0.0616365 0.907719 0.595704 0.348901
897 50 1 0.0622985 0.884191 0.824575 0.355713
758 43 2 -0.0616365 0.953565 0.562511 0.63006
768 43 1 0.0622985 0.903656 0.583562 0.634947
293 17 2 -0.0543881 0.513343 0.605871 0.568678
294 17 2 -0.0616365 0.56438 0.593651 0.604053
299 17 1 0.0622985 0.550018 0.574529 0.362134
552 31 1 0.0622985 0.852819 0.526504 0.388868
887 50 2 -0.0543881 0.781136 0.81242 0.367232
289 17 2 -0.0616365 0.542671 0.578799 0.405572
759 43 2 -0.0543881 0.998934 0.60648 0.620757
345 20 2 -0.0543881 0.985487 0.517109 0.49558
356 20 1 0.0629322 0.933588 0.631106 0.50652
347 20 2 -0.0543881 0.981715 0.628597 0.49379
357 20 1 0.0622985 0.985383 0.731216 0.480188
553 31 1 0.0629322 0.751317 0.547099 0.335625
769 43 1 0.0629322 0.987445 0.655531 0.616542
292 17 2 -0.018412 0.524434 0.594142 0.514119
295 17 2 -0.0616365 0.621627 0.568485 0.585319
304 17 1 0.0622985 0.658175 0.561006 0.615794
297 17 2 -0.018412 0.58344 0.573065 0.495754
296 17 2 -0.0543881 0.631895 0.557083 0.531432
355 20 1 0.0629322 0.933429 0.515909 0.506015
899 50 1 0.0629322 0.816829 0.659534 0.443511
305 17 1 0.0629322 0.681112 0.542791 0.51943
298 17 2 -0.0543881 0.592488 0.561607 0.440783
898 50 1 0.0622985 0.902724 0.718101 0.405289
889 50 2 -0.0616365 0.854337 0.738976 0.40157
890 50 2 -0.0543881 0.803361 0.704124 0.423113
900 50 1 0.0629322 0.697695 0.647363 0.462561
341 19 1 0.0629322 0.987116 0.980503 0.372347
464 26 1 0.0629322 0.505798 0.876499 0.549421
332 19 2 -0.0543881 0.986542 0.96924 0.417846
340 19 1 0.0622985 0.8912 0.935974 0.415623
331 19 2 -0.0616365 0.933191 0.944406 0.439792
339 19 1 0.0622985 0.892727 0.907278 0.509032
306 17 1 0.0629322 0.640803 0.5405 0.425783
888 50 2 -0.0616365 0.843445 0.792425 0.372923
893 50 1 0.0622985 0.588808 0.690826 0.454665
283 16 1 0.0629322 0.746463 0.838554 0.583935
892 50 2 -0.0543881 0.692547 0.692265 0.439655
891 50 2 -0.018412 0.742336 0.722865 0.418652
886 50 2 -0.018412 0.732567 0.778703 0.390517
883 50 2 -0.0616365 0.632487 0.714485 0.436844
710 40 2 -0.0543881 0.863648 0.733529 0.568062
718 40 1 0.0622985 0.931677 0.801223 0.532277
709 40 2 -0.0616365 0.9108 0.778746 0.570629
708 40 2 -0.0616365 0.931779 0.80415 0.620091
717 40 1 0.0622985 0.961096 0.846026 0.618716
273 16 2 -0.0543881 0.699523 0.811296 0.59624
274 16 2 -0.018412 0.68192 0.80021 0.649481
282 16 1 0.0622985 0.675623 0.800388 0.513272
272 16 2 -0.0616365 0.660428 0.794578 0.554904
719 40 1 0.0629322 0.846458 0.717262 0.526737
279 16 2 -0.018412 0.627062 0.771076 0.660926
711 40 2 -0.018412 0.837664 0.710941 0.614701
35 2 1 0.0629322 0.745198 0.953949 0.660534
281 16 1 0.0622985 0.570738 0.75538 0.533663
271 16 2 -0.0616365 0.60354 0.764852 0.565798
720 40 1 0.0629322 0.766556 0.649095 0.574185
280 16 2 -0.0543881 0.586686 0.75319 0.618465
288 16 1 0.0629322 0.544579 0.722845 0.625822
707 40 2 -0.0543881 0.907096 0.779763 0.666114
706 40 2 -0.018412 0.863 0.732155 0.663932
712 40 2 -0.0543881 0.787128 0.666461 0.614557
703 40 2 -0.0616365 0.768239 0.642802 0.661474
713 40 1 0.0622985 0.732554 0.601962 0.664173
161 9 1 0.0629322 0.454212 0.269907 0.993131
255 15 2 -0.0543881 0.0956003 0.26141 0.704315
265 15 1 0.0629322 0.144984 0.266136 0.72168
429 24 1 0.0622985 0.292665 0.217538 0.692234
828 46 1 0.0629322 0.419104 0.419225 0.724116
820 46 2 -0.0543881 0.380714 0.451262 0.714012
420 24 2 -0.0616365 0.286556 0.165099 0.681398
254 15 2 -0.0616365 0.0408786 0.249724 0.733964
819 46 2 -0.018412 0.319338 0.429657 0.721443
827 46 1 0.0629322 0.346636 0.335829 0.74751
264 15 1 0.0622985 0.0408295 0.246362 0.777897
205 12 2 -0.0616365 0.0153782 0.416049 0.998642
422 24 2 -0.0543881 0.226025 0.0724499 0.672151
421 24 2 -0.0616365 0.228828 0.135543 0.685973
818 46 2 -0.0543881 0.306167 0.369331 0.738925
570 32 1 0.0622985 0.406785 0.406527 0.865309
430 24 1 0.0622985 0.189229 0.16221 0.701846
176 10 1 0.0629322 0.158017 0.133722 0.828036
168 10 2 -0.0616365 0.249862 0.0962094 0.814065
177 10 1 0.0622985 0.232275 0.0528145 0.792896
816 46 2 -0.0616365 0.196185 0.396637 0.747811
170 10 2 -0.0543881 0.334499 0.156222 0.851496
167 10 2 -0.0543881 0.208208 0.139961 0.83306
180 10 1 0.0629322 0.364864 0.259957 0.916986
171 10 2 -0.018412 0.293771 0.199714 0.870022
173 10 1 0.0622985 0.29122 0.334206 0.943022
163 10 2 -0.0616365 0.274114 0.29592 0.9184
172 10 2 -0.0543881 0.31575 0.251733 0.899753