ITEM: TIMESTEP
0
ITEM: NUMBER OF ATOMS
900
ITEM: BOX BOUNDS pp pp pp
6.8408488417770741e-01 2.1305508115822214e+01
6.8408488417770741e-01 2.1305508115822214e+01
1.0872933723188230e+03 1.1116659196811770e+03
ITEM: ATOMS id mol type q xs ys zs
492 28 2 -0.0616365 0.205053 0.244138 0.302034
495 28 2 -0.018412 0.140241 0.134107 0.327415
491 28 2 -0.0543881 0.160821 0.22237 0.268529
599 34 2 -0.0543881 0.0725743 0.346296 0.284075
598 34 2 -0.018412 0.0301072 0.335368 0.241691
597 34 2 -0.0543881 0.0396732 0.358982 0.190612
753 42 1 0.0622985 0.351881 0.176362 0.153658
754 42 1 0.0622985 0.255178 0.229183 0.191949
745 42 2 -0.0616365 0.284996 0.25444 0.169268
744 42 2 -0.0616365 0.339399 0.228435 0.147912
743 42 2 -0.0543881 0.38129 0.267558 0.117806
746 42 2 -0.0543881 0.274542 0.316956 0.163256
755 42 1 0.0629322 0.230457 0.334765 0.184004
607 34 1 0.0629322 0.0769103 0.395197 0.182562
596 34 2 -0.0616365 0.000429086 0.345135 0.147833
606 34 1 0.0622985 0.00967591 0.366291 0.109027
756 42 1 0.0629322 0.2568 0.434495 0.145539
742 42 2 -0.018412 0.367559 0.330451 0.108844
747 42 2 -0.018412 0.313729 0.354562 0.131456
748 42 2 -0.0543881 0.300758 0.416905 0.126365
739 42 2 -0.0616365 0.343213 0.456492 0.102525
501 28 1 0.0622985 0.229933 0.288263 0.291157
500 28 1 0.0629322 0.156876 0.245295 0.22784
159 9 1 0.0622985 0.230666 0.0938176 0.0532082
158 9 1 0.0629322 0.152031 0.166085 0.0822709
149 9 2 -0.0543881 0.192799 0.187368 0.0599198
157 9 1 0.0629322 0.107511 0.276861 0.0778078
490 28 2 -0.018412 0.127496 0.167035 0.281779
608 34 1 0.0629322 0.118301 0.371427 0.282122
600 34 2 -0.0616365 0.0600832 0.318005 0.332761
150 9 2 -0.0616365 0.23937 0.145875 0.0417374
148 9 2 -0.018412 0.200377 0.250391 0.048798
147 9 2 -0.0543881 0.153689 0.293082 0.0609751
840 47 1 0.0622985 0.221973 0.126193 0.167006
841 47 1 0.0629322 0.143097 0.0422292 0.152503
830 47 2 -0.0616365 0.224163 0.0818794 0.19284
831 47 2 -0.0543881 0.179928 0.0344612 0.186684
146 9 2 -0.0616365 0.163647 0.357277 0.0492631
487 28 2 -0.0616365 0.0641952 0.0565968 0.303242
594 33 1 0.0629322 0.413708 0.449639 0.21925
663 37 1 0.0622985 0.380796 0.00792358 0.0224825
140 8 1 0.0629322 0.456195 0.302943 0.208823
145 9 2 -0.0616365 0.218794 0.374609 0.0245572
156 9 1 0.0622985 0.127487 0.393999 0.0581681
752 42 1 0.0629322 0.422671 0.241822 0.100047
141 8 1 0.0622985 0.37785 0.264091 0.279173
132 8 2 -0.0616365 0.417806 0.294175 0.289526
676 38 2 -0.0543881 0.0402442 0.064337 0.0772913
829 47 2 -0.0616365 0.267347 0.0788733 0.234341
839 47 1 0.0622985 0.304593 0.115909 0.24188
155 9 1 0.0622985 0.227183 0.427295 0.0148473
790 44 1 0.0622985 0.424819 0.0848181 0.132924
675 38 2 -0.018412 0.0584701 0.0837361 0.0266197
489 28 2 -0.0543881 0.0853554 0.144118 0.245597
488 28 2 -0.0616365 0.0531495 0.089096 0.256742
740 42 2 -0.0616365 0.396584 0.431649 0.076269
499 28 1 0.0629322 0.0779996 0.167209 0.206486
781 44 2 -0.0616365 0.456374 0.074543 0.166199
780 44 2 -0.0616365 0.468612 0.116586 0.207029
789 44 1 0.0622985 0.448464 0.163888 0.210777
153 9 2 -0.018412 0.254998 0.271191 0.0211525
154 9 2 -0.0543881 0.263668 0.332895 0.00902904
151 9 2 -0.0616365 0.291748 0.167274 0.0132137
152 9 2 -0.0543881 0.298926 0.229929 0.00283581
131 8 2 -0.0543881 0.459766 0.316932 0.251216
741 42 2 -0.0543881 0.408 0.368621 0.0795269
498 28 1 0.0622985 0.0224987 0.0673287 0.226786
684 38 1 0.0629322 0.0575187 0.0179012 0.0935247
782 44 2 -0.0543881 0.488983 0.0188066 0.161391
497 28 1 0.0622985 0.0403006 0.0105301 0.310809
587 33 1 0.0622985 0.301212 0.426855 0.241443
674 38 2 -0.0543881 0.107713 0.0559806 0.00153713
586 33 2 -0.0543881 0.382484 0.486376 0.236018
577 33 2 -0.0616365 0.321021 0.477936 0.249972
683 38 1 0.0629322 0.127109 0.00839665 0.0157876
838 47 2 -0.0543881 0.268889 0.0263917 0.268103
846 47 1 0.0629322 0.305758 0.0212315 0.299466
670 38 2 -0.018412 0.035384 0.140661 0.00413712
751 42 1 0.0629322 0.453265 0.345116 0.0628947
750 42 1 0.0622985 0.429852 0.464616 0.055261
668 38 2 -0.0616365 0.97239 0.153277 0.0828429
603 34 2 -0.018412 0.979431 0.296339 0.249072
602 34 2 -0.0543881 0.968632 0.27059 0.298732
595 34 2 -0.0616365 0.950037 0.305838 0.156336
604 34 2 -0.0543881 0.940687 0.280512 0.206176
605 34 1 0.0622985 0.917445 0.291865 0.122682
100 6 2 -0.0543881 0.919235 0.467708 0.281559
139 8 1 0.0629322 0.54104 0.374657 0.180987
612 34 1 0.0629322 0.898267 0.24922 0.211583
611 34 1 0.0629322 0.929536 0.239794 0.305299
107 6 1 0.0629322 0.815134 0.397458 0.28148
126 7 1 0.0629322 0.774903 0.265236 0.0747975
125 7 1 0.0629322 0.801655 0.218182 0.160341
118 7 2 -0.0543881 0.727804 0.268241 0.0874187
109 7 2 -0.0616365 0.684191 0.286156 0.0500804
98 6 2 -0.0543881 0.836035 0.410594 0.240081
106 6 1 0.0622985 0.764018 0.35813 0.202348
124 7 1 0.0622985 0.769728 0.195624 0.253775
115 7 2 -0.0616365 0.735907 0.215558 0.223557
116 7 2 -0.0543881 0.751815 0.224946 0.173315
117 7 2 -0.018412 0.708633 0.247319 0.134029
135 8 2 -0.018412 0.516437 0.368131 0.316824
130 8 2 -0.018412 0.509343 0.353694 0.264286
83 5 1 0.0622985 0.785364 0.0960831 0.113631
533 30 1 0.0622985 0.594564 0.141149 0.101522
112 7 2 -0.018412 0.645963 0.251996 0.148147
111 7 2 -0.0543881 0.600321 0.266231 0.111846
123 7 1 0.0622985 0.657957 0.197364 0.275409
114 7 2 -0.0616365 0.671292 0.21745 0.236947
113 7 2 -0.0543881 0.627673 0.235297 0.19903
122 7 1 0.0629322 0.575934 0.232577 0.207723
121 7 1 0.0629322 0.55056 0.271238 0.121006
127 8 2 -0.0616365 0.612517 0.425603 0.297277
129 8 2 -0.0543881 0.551929 0.379172 0.225359
128 8 2 -0.0616365 0.604709 0.413784 0.242255
110 7 2 -0.0616365 0.622174 0.28768 0.0624073
138 8 1 0.0622985 0.63929 0.433742 0.213357
677 38 1 0.0622985 0.979614 0.0832581 0.14302
119 7 1 0.0622985 0.701133 0.309526 0.0145967
97 6 2 -0.0616365 0.804743 0.389671 0.195046
99 6 2 -0.018412 0.887121 0.450068 0.236903
540 30 1 0.0629322 0.678317 0.057693 0.112344
532 30 2 -0.0543881 0.658077 0.0718457 0.0720486
372 21 1 0.0622985 0.99576 0.332678 0.0208985
371 21 1 0.0622985 0.886873 0.366807 0.0445369
120 7 1 0.0622985 0.58356 0.309082 0.0350017
700 39 1 0.0622985 0.837249 0.206293 0.000220767
94 6 2 -0.018412 0.909934 0.468871 0.187108
394 22 1 0.0622985 0.643185 0.413761 0.0675548
73 5 2 -0.0616365 0.813489 0.0626667 0.137645
74 5 2 -0.0616365 0.859301 0.0317874 0.109465
89 5 1 0.0629322 0.782749 0.0101746 0.296528
81 5 2 -0.018412 0.834121 0.0050239 0.216369
82 5 2 -0.0543881 0.798781 0.0496377 0.190068
90 5 1 0.0629322 0.757459 0.071815 0.210023
779 44 2 -0.0543881 0.515282 0.101658 0.244656
778 44 2 -0.018412 0.5503 0.0449014 0.23776
108 6 1 0.0629322 0.904824 0.447636 0.324052
788 44 1 0.0629322 0.533938 0.137426 0.272392
667 38 2 -0.0616365 0.996396 0.098513 0.102963
523 30 2 -0.0616365 0.612632 0.117849 0.0662254
534 30 1 0.0622985 0.554663 0.17179 0.0114384
524 30 2 -0.0616365 0.590114 0.134663 0.0157998
361 21 2 -0.0616365 0.902261 0.372386 0.00319018
531 30 2 -0.018412 0.68168 0.0425425 0.0253947
104 6 1 0.0629322 0.892141 0.463142 0.102402
96 6 2 -0.0616365 0.823311 0.411194 0.146404
105 6 1 0.0622985 0.803055 0.398132 0.107632
95 6 2 -0.0543881 0.877337 0.448985 0.1423
393 22 1 0.0622985 0.558845 0.47684 0.109357
384 22 2 -0.0616365 0.57714 0.49151 0.0700403
783 44 2 -0.018412 0.536869 0.00467702 0.196412
777 44 2 -0.0543881 0.598535 0.0294405 0.273218
787 44 1 0.0629322 0.608918 0.0588101 0.30947
385 22 2 -0.0616365 0.626588 0.456747 0.0474727
137 8 1 0.0622985 0.653698 0.455535 0.308164
669 38 2 -0.0543881 0.990545 0.175092 0.03278
679 38 1 0.0629322 0.969251 0.220483 0.0210941
84 5 1 0.0622985 0.866904 0.0419169 0.0666965
678 38 1 0.0622985 0.939655 0.181641 0.107314
833 47 2 -0.0543881 0.129855 0.938483 0.218521
842 47 1 0.0629322 0.0925813 0.942922 0.188153
832 47 2 -0.018412 0.180311 0.9808 0.221941
791 44 1 0.0629322 0.479023 0.985334 0.126456
749 42 1 0.0622985 0.336848 0.509794 0.103205
578 33 2 -0.0616365 0.28451 0.524825 0.268451
588 33 1 0.0622985 0.233004 0.521618 0.275688
834 47 2 -0.0616365 0.131391 0.885571 0.250145
843 47 1 0.0622985 0.0949885 0.848998 0.251864
808 45 1 0.0622985 0.0847192 0.674168 0.307201
837 47 2 -0.018412 0.22382 0.977909 0.262622
835 47 2 -0.0616365 0.175753 0.883471 0.290959
844 47 1 0.0622985 0.170417 0.839405 0.315392
836 47 2 -0.0543881 0.222667 0.928477 0.298461
845 47 1 0.0629322 0.257792 0.930025 0.333162
448 25 1 0.0622985 0.361734 0.911172 0.0894267
447 25 1 0.0622985 0.385113 0.923154 0.187203
439 25 2 -0.0616365 0.397197 0.881033 0.111597
438 25 2 -0.0616365 0.412799 0.890174 0.164371
809 45 1 0.0629322 0.0390287 0.75618 0.246265
585 33 2 -0.018412 0.409233 0.545421 0.244772
580 33 2 -0.018412 0.370547 0.596046 0.26226
584 33 2 -0.0543881 0.470255 0.555099 0.234532
581 33 2 -0.0543881 0.397827 0.654665 0.269856
195 11 1 0.0622985 0.229289 0.845559 0.148934
186 11 2 -0.0616365 0.254646 0.817315 0.122388
194 11 1 0.0629322 0.297957 0.763107 0.188388
184 11 2 -0.018412 0.31961 0.726202 0.107726
185 11 2 -0.0543881 0.289714 0.769131 0.142709
189 11 2 -0.018412 0.311152 0.735429 0.0527888
193 11 1 0.0629322 0.360585 0.669091 0.170327
183 11 2 -0.0543881 0.350248 0.67536 0.128383
799 45 2 -0.0616365 0.0978335 0.673845 0.26279
800 45 2 -0.0543881 0.0720933 0.72024 0.228378
801 45 2 -0.018412 0.0871633 0.723481 0.177037
802 45 2 -0.0543881 0.0556106 0.767668 0.14614
579 33 2 -0.0543881 0.309504 0.586372 0.274992
590 33 1 0.0629322 0.372568 0.696765 0.284883
589 33 1 0.0629322 0.278528 0.621085 0.289863
807 45 1 0.0622985 0.154564 0.589453 0.268059
798 45 2 -0.0616365 0.136793 0.628552 0.242331
797 45 2 -0.0543881 0.152721 0.632227 0.188014
796 45 2 -0.018412 0.12835 0.679259 0.15422
182 11 2 -0.0616365 0.380489 0.633344 0.0946197
192 11 1 0.0622985 0.408138 0.592855 0.112413
181 11 2 -0.0616365 0.379393 0.643033 0.040084
190 11 2 -0.0543881 0.344634 0.694601 0.0194974
440 25 2 -0.0543881 0.432179 0.831521 0.0877545
449 25 1 0.0629322 0.424582 0.821821 0.0454682
795 45 2 -0.0543881 0.138594 0.683271 0.0985826
806 45 1 0.0629322 0.181283 0.591745 0.167406
191 11 1 0.0622985 0.407866 0.612394 0.0105163
805 45 1 0.0629322 0.169105 0.647901 0.0782889
441 25 2 -0.018412 0.479155 0.79955 0.110388
450 25 1 0.0629322 0.499426 0.748634 0.0400859
209 12 1 0.0622985 0.0353484 0.548818 0.00614397
196 11 1 0.0622985 0.22551 0.871299 0.0560807
187 11 2 -0.0616365 0.251248 0.830231 0.0689554
188 11 2 -0.0543881 0.279972 0.788103 0.0342607
810 45 1 0.0629322 0.0237862 0.803879 0.166869
793 45 2 -0.0616365 0.0707618 0.770893 0.0943946
803 45 1 0.0622985 0.0463096 0.811139 0.0697896
794 45 2 -0.0616365 0.10936 0.729521 0.0696939
804 45 1 0.0622985 0.118918 0.736382 0.0274624
582 33 2 -0.0616365 0.459494 0.662117 0.259085
583 33 2 -0.0616365 0.496821 0.613354 0.241679
591 33 1 0.0622985 0.475716 0.71078 0.26945
437 25 2 -0.0543881 0.455962 0.851379 0.192072
446 25 1 0.0629322 0.456664 0.854538 0.237203
436 25 2 -0.018412 0.489627 0.808449 0.165951
102 6 1 0.0622985 0.0336862 0.556257 0.23145
101 6 1 0.0622985 0.00144665 0.516408 0.31331
53 3 1 0.0629322 0.374447 0.81399 0.315254
662 37 1 0.0629322 0.477328 0.964325 0.0157009
593 33 1 0.0629322 0.503537 0.514886 0.21727
91 6 2 -0.0616365 0.972105 0.504511 0.278102
92 6 2 -0.0616365 0.991588 0.526292 0.230565
93 6 2 -0.0543881 0.963678 0.507312 0.184525
80 5 2 -0.0543881 0.822597 0.992668 0.271103
643 36 1 0.0629322 0.90802 0.661317 0.0350237
592 33 1 0.0622985 0.548697 0.62023 0.242543
103 6 1 0.0629322 0.978084 0.523576 0.144915
87 5 1 0.0622985 0.936967 0.886298 0.29376
86 5 1 0.0629322 0.957816 0.907245 0.195691
792 44 1 0.0629322 0.565102 0.921894 0.153869
784 44 2 -0.0543881 0.574536 0.955163 0.186953
785 44 1 0.0622985 0.65726 0.900577 0.216889
775 44 2 -0.0616365 0.622966 0.93957 0.221227
776 44 2 -0.0616365 0.639981 0.980335 0.262704
786 44 1 0.0622985 0.682704 0.973748 0.288231
445 25 1 0.0629322 0.551836 0.77597 0.234785
435 25 2 -0.0543881 0.538523 0.773191 0.190419
78 5 2 -0.0616365 0.907679 0.919694 0.270182
79 5 2 -0.0616365 0.859781 0.95053 0.295552
442 25 2 -0.0543881 0.513699 0.754984 0.0830833
434 25 2 -0.0616365 0.566803 0.724462 0.16353
392 22 1 0.0629322 0.517513 0.574823 0.0566692
519 29 1 0.0622985 0.748839 0.603704 0.113167
510 29 2 -0.0616365 0.749114 0.616631 0.068986
75 5 2 -0.0543881 0.893016 0.98656 0.135739
85 5 1 0.0629322 0.930511 0.96301 0.115706
76 5 2 -0.018412 0.882246 0.97507 0.188045
77 5 2 -0.0543881 0.91875 0.930735 0.215907
646 36 1 0.0622985 0.869335 0.726351 0.26381
444 25 1 0.0622985 0.599257 0.694622 0.18576
645 36 1 0.0622985 0.919175 0.635437 0.224801
636 36 2 -0.0616365 0.901517 0.672505 0.194399
635 36 2 -0.0543881 0.906856 0.664469 0.140082
637 36 2 -0.0616365 0.873855 0.723487 0.217991
634 36 2 -0.018412 0.887003 0.713737 0.106519
647 36 1 0.0629322 0.830799 0.816061 0.202226
638 36 2 -0.0543881 0.855092 0.772357 0.184495
639 36 2 -0.018412 0.858964 0.765409 0.128511
556 31 1 0.0622985 0.740312 0.52726 0.283364
557 31 1 0.0629322 0.704085 0.628641 0.242349
547 31 2 -0.0616365 0.75069 0.575143 0.302607
548 31 2 -0.0543881 0.730827 0.631988 0.27949
550 31 2 -0.0543881 0.727568 0.746309 0.281459
549 31 2 -0.018412 0.747026 0.689423 0.302645
644 36 1 0.0629322 0.923988 0.621649 0.120931
518 29 1 0.0629322 0.706867 0.706157 0.0846718
433 25 2 -0.0616365 0.556069 0.718354 0.108761
443 25 1 0.0622985 0.585537 0.681938 0.0867048
520 29 1 0.0622985 0.799039 0.526905 0.0460141
383 22 2 -0.0543881 0.553292 0.544069 0.0421699
558 31 1 0.0629322 0.695955 0.745767 0.244007
551 31 1 0.0622985 0.727949 0.848781 0.288234
541 31 2 -0.0616365 0.746443 0.802339 0.305453
648 36 1 0.0629322 0.809433 0.855109 0.10859
511 29 2 -0.0616365 0.776079 0.574339 0.0333737
640 36 2 -0.0543881 0.835606 0.812177 0.0924879
539 30 1 0.0629322 0.743983 0.977795 0.0649136
633 36 2 -0.0543881 0.88763 0.705895 0.0526819
899 50 1 0.0629322 0.555308 0.717435 0.325846
509 29 2 -0.0543881 0.721056 0.670989 0.0533214
641 36 1 0.0622985 0.822254 0.840207 0.00718763
632 36 2 -0.0616365 0.870523 0.753247 0.0192659
517 29 1 0.0629322 0.66852 0.772282 0.010211
631 36 2 -0.0616365 0.840675 0.807181 0.0384951
530 30 2 -0.0543881 0.72546 0.996844 0.0277247
494 28 2 -0.0543881 0.186838 0.155363 0.36142
493 28 2 -0.0616365 0.21736 0.21081 0.349745
496 28 2 -0.0543881 0.108097 0.08034 0.337824
133 8 2 -0.0616365 0.424737 0.308382 0.342049
601 34 2 -0.0616365 0.00937305 0.28135 0.340332
502 28 1 0.0622985 0.258288 0.230838 0.378115
504 28 1 0.0629322 0.113717 0.0505284 0.374877
503 28 1 0.0629322 0.201633 0.130634 0.398526
857 48 1 0.0622985 0.29212 0.0417383 0.391519
142 8 1 0.0622985 0.390949 0.289714 0.371545
318 18 1 0.0622985 0.352436 0.230156 0.497117
864 48 1 0.0629322 0.373877 0.104952 0.337438
308 18 2 -0.0616365 0.372116 0.256862 0.533355
317 18 1 0.0622985 0.315987 0.198759 0.587914
237 14 2 -0.0543881 0.440823 0.498011 0.420922
847 48 2 -0.0616365 0.332494 0.0709126 0.408851
856 48 2 -0.0543881 0.379127 0.103149 0.380415
858 48 1 0.0622985 0.303968 0.0415893 0.488605
307 18 2 -0.0616365 0.354397 0.236471 0.583911
319 18 1 0.0629322 0.43736 0.312831 0.489435
848 48 2 -0.0616365 0.339596 0.0690899 0.463362
609 34 1 0.0622985 0.0943603 0.324594 0.364682
248 14 1 0.0629322 0.317924 0.48104 0.416904
309 18 2 -0.0543881 0.419154 0.300138 0.528398
850 48 2 -0.018412 0.432248 0.132543 0.461373
855 48 2 -0.018412 0.42838 0.135418 0.407495
849 48 2 -0.0543881 0.38992 0.0984768 0.489502
316 18 2 -0.0543881 0.381016 0.260749 0.631012
62 4 2 -0.0543881 0.123126 0.141949 0.494585
71 4 1 0.0629322 0.117115 0.152589 0.453021
61 4 2 -0.0616365 0.183545 0.135142 0.51526
70 4 1 0.0622985 0.224694 0.143099 0.486823
60 4 2 -0.0616365 0.188439 0.121488 0.568548
69 4 1 0.0622985 0.235896 0.119907 0.588261
267 15 1 0.0622985 0.198018 0.313219 0.564723
258 15 2 -0.0616365 0.167746 0.295743 0.598153
310 18 2 -0.018412 0.449398 0.322728 0.576637
315 18 2 -0.018412 0.430155 0.305193 0.628752
249 14 1 0.0622985 0.248726 0.456587 0.492275
240 14 2 -0.0616365 0.299022 0.466362 0.500661
239 14 2 -0.0543881 0.33815 0.48203 0.45811
243 14 2 -0.018412 0.427868 0.486429 0.515974
242 14 2 -0.0543881 0.387511 0.474035 0.557124
241 14 2 -0.0616365 0.321761 0.466337 0.550651
238 14 2 -0.018412 0.404101 0.489087 0.464035
59 4 2 -0.0543881 0.135719 0.108162 0.600781
68 4 1 0.0629322 0.141786 0.0994744 0.645243
58 4 2 -0.018412 0.0766944 0.118618 0.580145
63 4 2 -0.018412 0.0695444 0.134327 0.526548
259 15 2 -0.0616365 0.10372 0.290637 0.589906
353 20 1 0.0622985 0.0825226 0.38003 0.438067
251 14 1 0.0629322 0.408155 0.475384 0.59747
851 48 2 -0.0543881 0.480658 0.160956 0.489581
860 48 1 0.0629322 0.481971 0.155218 0.533999
859 48 1 0.0629322 0.39192 0.100126 0.535061
268 15 1 0.0622985 0.0832391 0.310339 0.551452
260 15 2 -0.0543881 0.0651711 0.269978 0.628073
854 48 2 -0.0543881 0.475122 0.168224 0.381048
343 20 2 -0.0616365 0.0585502 0.424597 0.443307
269 15 1 0.0629322 0.0159743 0.269757 0.618218
250 14 1 0.0622985 0.289082 0.461711 0.585302
416 24 2 -0.0616365 0.375718 0.00758202 0.61344
415 24 2 -0.0616365 0.311433 0.0179875 0.621602
311 18 2 -0.0543881 0.499708 0.363339 0.572578
768 43 1 0.0622985 0.0337682 0.412655 0.619436
427 24 1 0.0629322 0.471559 0.0483319 0.628545
417 24 2 -0.0543881 0.419127 0.0464708 0.640861
143 8 1 0.0629322 0.475717 0.357335 0.400587
134 8 2 -0.0543881 0.472828 0.34711 0.355584
610 34 1 0.0622985 0.00273659 0.254065 0.378034
863 48 1 0.0629322 0.469429 0.172856 0.336111
57 4 2 -0.0543881 0.0229033 0.109688 0.611329
67 4 1 0.0629322 0.026501 0.0928639 0.653119
64 4 2 -0.0543881 0.0113578 0.143822 0.503534
72 4 1 0.0629322 0.0047222 0.158112 0.46136
767 43 1 0.0622985 0.151249 0.4154 0.584865
757 43 2 -0.0616365 0.11978 0.459785 0.590801
360 20 1 0.0629322 0.141893 0.473101 0.429726
352 20 2 -0.0543881 0.0927565 0.47725 0.440472
758 43 2 -0.0616365 0.056204 0.456418 0.606503
257 15 2 -0.0543881 0.195505 0.273484 0.645241
266 15 1 0.0629322 0.248483 0.274324 0.649116
424 24 2 -0.0543881 0.291901 0.0543146 0.662081
313 18 2 -0.0616365 0.506456 0.375843 0.66629
852 48 2 -0.0616365 0.523714 0.196793 0.463568
344 20 2 -0.0616365 0.996352 0.424362 0.452942
354 20 1 0.0622985 0.973894 0.376417 0.451715
345 20 2 -0.0543881 0.96524 0.480504 0.46035
233 13 1 0.0629322 0.825898 0.183654 0.34953
144 8 1 0.0629322 0.569769 0.41815 0.375589
136 8 2 -0.0543881 0.568344 0.403571 0.333733
861 48 1 0.0622985 0.561542 0.225032 0.485853
853 48 2 -0.0616365 0.521923 0.19848 0.406461
735 41 1 0.0622985 0.798884 0.307653 0.372192
312 18 2 -0.0616365 0.528321 0.387584 0.61675
224 13 2 -0.0543881 0.798677 0.146629 0.372989
223 13 2 -0.0616365 0.732622 0.146875 0.3714
736 41 1 0.0622985 0.762962 0.424251 0.387247
727 41 2 -0.0616365 0.79119 0.397906 0.415793
408 23 1 0.0622985 0.777703 0.113799 0.576247
728 41 2 -0.0543881 0.800156 0.42881 0.46542
232 13 1 0.0622985 0.710573 0.184082 0.348378
410 23 1 0.0629322 0.707434 0.241574 0.433465
321 18 1 0.0622985 0.568642 0.419194 0.609464
411 23 1 0.0622985 0.649097 0.348667 0.433212
320 18 1 0.0629322 0.514363 0.377228 0.531557
725 41 2 -0.0543881 0.8361 0.305028 0.452303
729 41 2 -0.018412 0.824967 0.394354 0.508174
726 41 2 -0.0616365 0.810981 0.336743 0.408287
734 41 1 0.0629322 0.851232 0.254874 0.447514
724 41 2 -0.018412 0.843736 0.333686 0.5024
862 48 1 0.0622985 0.554579 0.224024 0.382478
402 23 2 -0.0616365 0.663755 0.327414 0.470186
403 23 2 -0.0616365 0.65089 0.35742 0.515809
401 23 2 -0.0543881 0.692443 0.268804 0.471007
733 41 1 0.0629322 0.884474 0.247781 0.536929
723 41 2 -0.0543881 0.8677 0.298767 0.545439
413 23 1 0.0629322 0.655533 0.359983 0.597799
404 23 2 -0.0543881 0.668349 0.332522 0.565165
400 23 2 -0.018412 0.710148 0.24294 0.520433
405 23 2 -0.018412 0.699957 0.276021 0.568712
730 41 2 -0.0543881 0.829845 0.422465 0.557316
399 23 2 -0.0543881 0.740851 0.186304 0.52424
409 23 1 0.0629322 0.747711 0.155449 0.486631
398 23 2 -0.0616365 0.759 0.160657 0.572237
65 4 1 0.0622985 0.909732 0.14719 0.518273
55 4 2 -0.0616365 0.958057 0.137972 0.536309
56 4 2 -0.0616365 0.962304 0.117411 0.588712
66 4 1 0.0622985 0.918973 0.11178 0.613398
397 23 2 -0.0616365 0.751226 0.191727 0.618986
407 23 1 0.0622985 0.765469 0.171191 0.656317
406 23 2 -0.0543881 0.722208 0.251395 0.617257
721 41 2 -0.0616365 0.855153 0.389488 0.599177
722 41 2 -0.0616365 0.872029 0.328077 0.593821
32 2 1 0.0629322 0.582604 0.164551 0.580992
23 2 2 -0.0543881 0.606009 0.131554 0.60861
732 41 1 0.0622985 0.891152 0.304172 0.628061
33 2 1 0.0622985 0.62548 0.0590838 0.549452
24 2 2 -0.0616365 0.628454 0.0730051 0.591391
25 2 2 -0.0616365 0.651494 0.0312857 0.626617
222 13 2 -0.0616365 0.69534 0.105378 0.395065
231 13 1 0.0622985 0.641629 0.113349 0.396613
355 20 1 0.0629322 0.914797 0.482307 0.469484
737 41 1 0.0629322 0.787811 0.48019 0.471611
738 41 1 0.0629322 0.813084 0.472507 0.56527
412 23 1 0.0622985 0.628025 0.406314 0.512418
234 13 1 0.0629322 0.923314 0.126468 0.379056
226 13 2 -0.0543881 0.889783 0.090348 0.400817
225 13 2 -0.018412 0.826892 0.0970578 0.397978
731 41 1 0.0622985 0.856522 0.415892 0.637964
22 2 2 -0.018412 0.608896 0.146742 0.664185
217 13 2 -0.0616365 0.917059 0.0398573 0.430258
227 13 1 0.0622985 0.969521 0.031088 0.431967
220 13 2 -0.018412 0.788295 0.0509731 0.423504
218 13 2 -0.0616365 0.881438 8.2002e-05 0.457767
219 13 2 -0.0543881 0.815231 0.0019132 0.452057
221 13 2 -0.0543881 0.721557 0.056837 0.424514
230 13 1 0.0629322 0.687817 0.0259923 0.447429
414 23 1 0.0629322 0.713641 0.276861 0.654988
31 2 1 0.0629322 0.559787 0.231333 0.653817
336 19 1 0.0622985 0.0450716 0.883676 0.344436
247 14 1 0.0629322 0.419651 0.500552 0.379502
244 14 2 -0.0543881 0.490723 0.501367 0.522288
425 24 1 0.0622985 0.276823 0.994313 0.595988
426 24 1 0.0622985 0.392477 0.975039 0.582362
339 19 1 0.0622985 0.0561856 0.93665 0.612371
54 3 1 0.0629322 0.259766 0.772115 0.34426
47 3 1 0.0622985 0.174405 0.779626 0.403648
359 20 1 0.0629322 0.152354 0.590507 0.428325
46 3 2 -0.0543881 0.265147 0.806783 0.376682
45 3 2 -0.018412 0.318876 0.842946 0.385962
44 3 2 -0.0543881 0.370275 0.844523 0.352605
42 3 2 -0.0616365 0.422872 0.925139 0.403287
43 3 2 -0.0616365 0.422148 0.882381 0.361421
52 3 1 0.0622985 0.465395 0.881382 0.33424
51 3 1 0.0622985 0.464987 0.956042 0.411657
773 43 1 0.0629322 0.180884 0.631576 0.561201
774 43 1 0.0629322 0.197469 0.52131 0.572037
766 43 2 -0.0543881 0.145557 0.518674 0.583882
764 43 2 -0.0543881 0.131092 0.631773 0.573449
765 43 2 -0.018412 0.106849 0.573148 0.586452
37 3 2 -0.0616365 0.216862 0.809712 0.411781
302 17 1 0.0629322 0.384198 0.649577 0.605924
763 43 2 -0.0616365 0.0945999 0.684721 0.575042
772 43 1 0.0622985 0.112386 0.728839 0.570299
326 19 2 -0.0616365 0.0305124 0.872281 0.385929
467 26 1 0.0629322 0.406775 0.808236 0.493523
458 26 2 -0.0543881 0.434085 0.825045 0.526844
327 19 2 -0.0543881 0.0605312 0.900038 0.429737
337 19 1 0.0629322 0.0987837 0.934714 0.423566
48 3 1 0.0622985 0.178432 0.845351 0.483893
459 26 2 -0.018412 0.403517 0.823771 0.576605
49 3 1 0.0629322 0.275331 0.914282 0.50219
38 3 2 -0.0616365 0.21994 0.846966 0.456365
39 3 2 -0.0543881 0.272991 0.885646 0.465422
40 3 2 -0.018412 0.323206 0.882207 0.431812
41 3 2 -0.0543881 0.374201 0.920268 0.440848
454 26 2 -0.018412 0.436558 0.84471 0.622228
460 26 2 -0.0543881 0.34388 0.801886 0.581586
468 26 1 0.0629322 0.316747 0.787658 0.545283
351 20 2 -0.018412 0.061088 0.533753 0.445431
328 19 2 -0.018412 0.0421675 0.884746 0.481991
350 20 2 -0.0543881 0.0983337 0.587341 0.439574
349 20 2 -0.0616365 0.0709961 0.646032 0.444015
50 3 1 0.0629322 0.37908 0.951187 0.478496
301 17 1 0.0629322 0.291604 0.658339 0.546105
300 17 1 0.0622985 0.246764 0.657096 0.456556
760 43 2 -0.018412 0.0411466 0.568677 0.596921
290 17 2 -0.0616365 0.300816 0.661775 0.461759
291 17 2 -0.0543881 0.324765 0.660522 0.510683
329 19 2 -0.0543881 0.06582 0.91767 0.526533
338 19 1 0.0629322 0.101863 0.956953 0.520797
299 17 1 0.0622985 0.321461 0.653529 0.378595
289 17 2 -0.0616365 0.340589 0.658224 0.418222
292 17 2 -0.018412 0.389737 0.659937 0.51861
297 17 2 -0.018412 0.427661 0.657007 0.473935
298 17 2 -0.0543881 0.404862 0.657349 0.422723
455 26 2 -0.0543881 0.498934 0.86503 0.618445
330 19 2 -0.0616365 0.0393244 0.911161 0.577081
306 17 1 0.0629322 0.434138 0.653145 0.387105
293 17 2 -0.0543881 0.415464 0.65532 0.569805
296 17 2 -0.0543881 0.493283 0.656339 0.484149
761 43 2 -0.0543881 0.00292346 0.621482 0.596714
762 43 2 -0.0616365 0.0290299 0.680461 0.587134
294 17 2 -0.0616365 0.480888 0.652411 0.576653
759 43 2 -0.0543881 0.016837 0.509409 0.607492
461 26 1 0.0622985 0.266589 0.785329 0.638467
451 26 2 -0.0616365 0.317696 0.798607 0.63307
358 20 1 0.0622985 0.100993 0.688751 0.435645
457 26 2 -0.0616365 0.494331 0.85052 0.523615
348 20 2 -0.0616365 0.00504332 0.647949 0.455233
771 43 1 0.0622985 0.000838044 0.726577 0.589146
246 14 1 0.0622985 0.529313 0.521063 0.388806
88 5 1 0.0622985 0.850153 0.936921 0.336781
555 31 1 0.0622985 0.809755 0.535596 0.364527
546 31 2 -0.0616365 0.78782 0.579202 0.347358
235 14 2 -0.0616365 0.529062 0.51254 0.475546
236 14 2 -0.0616365 0.504527 0.509751 0.423729
245 14 1 0.0622985 0.578132 0.524663 0.476924
252 14 1 0.0629322 0.515401 0.507504 0.561896
623 35 1 0.0622985 0.820113 0.993627 0.658471
340 19 1 0.0622985 0.968004 0.858787 0.620211
335 19 1 0.0622985 0.954009 0.816576 0.358673
325 19 2 -0.0616365 0.982712 0.832749 0.394588
334 19 2 -0.0543881 0.961776 0.81603 0.445616
333 19 2 -0.018412 0.990996 0.844218 0.48822
332 19 2 -0.0543881 0.968105 0.832666 0.538017
341 19 1 0.0629322 0.929102 0.797958 0.545508
331 19 2 -0.0616365 0.992947 0.866916 0.581752
346 20 2 -0.018412 0.994945 0.535833 0.45669
464 26 1 0.0629322 0.521937 0.883468 0.654312
303 17 1 0.0622985 0.502137 0.647315 0.617371
295 17 2 -0.0616365 0.519538 0.65705 0.533252
543 31 2 -0.0543881 0.798258 0.747832 0.373609
544 31 2 -0.018412 0.781809 0.690394 0.350013
545 31 2 -0.0543881 0.80585 0.637232 0.371201
554 31 1 0.0629322 0.836757 0.637081 0.407808
34 2 1 0.0622985 0.670598 0.987542 0.609992
456 26 2 -0.0616365 0.526874 0.870543 0.569912
466 26 1 0.0622985 0.519297 0.854311 0.48568
465 26 1 0.0622985 0.574489 0.889217 0.567312
553 31 1 0.0629322 0.824621 0.75269 0.41155
542 31 2 -0.0616365 0.780104 0.804846 0.351986
552 31 1 0.0622985 0.797009 0.848753 0.370629
342 19 1 0.0629322 0.919016 0.78657 0.447984
894 50 1 0.0622985 0.674575 0.896324 0.483188
884 50 2 -0.0616365 0.656572 0.857518 0.454794
893 50 1 0.0622985 0.621134 0.919218 0.394101
228 13 1 0.0622985 0.909434 0.963037 0.480166
304 17 1 0.0622985 0.573776 0.648149 0.537114
770 43 1 0.0629322 0.950221 0.615964 0.604974
229 13 1 0.0629322 0.786436 0.967492 0.472926
896 50 1 0.0629322 0.694687 0.673757 0.485025
895 50 1 0.0629322 0.699582 0.784424 0.505912
885 50 2 -0.0543881 0.667846 0.796022 0.470545
897 50 1 0.0622985 0.659426 0.586746 0.428152
887 50 2 -0.0543881 0.665454 0.683027 0.447695
356 20 1 0.0629322 0.91565 0.599868 0.470946
347 20 2 -0.0543881 0.968226 0.594179 0.462908
357 20 1 0.0622985 0.983807 0.694201 0.456959
769 43 1 0.0629322 0.966209 0.503418 0.617976
305 17 1 0.0629322 0.526315 0.646813 0.451515
898 50 1 0.0622985 0.587541 0.604083 0.345715
889 50 2 -0.0616365 0.605062 0.648036 0.372928
890 50 2 -0.0543881 0.58547 0.707374 0.362548
900 50 1 0.0629322 0.573069 0.83143 0.340114
888 50 2 -0.0616365 0.643507 0.633823 0.415522
892 50 2 -0.0543881 0.598606 0.821243 0.378574
891 50 2 -0.018412 0.609945 0.758518 0.393665
886 50 2 -0.018412 0.647836 0.747622 0.440092
883 50 2 -0.0616365 0.624265 0.868958 0.408633
718 40 1 0.0622985 0.838582 0.665507 0.5506
709 40 2 -0.0616365 0.806744 0.657468 0.586172
282 16 1 0.0622985 0.776452 0.857525 0.65222
719 40 1 0.0629322 0.743175 0.600151 0.544219
281 16 1 0.0622985 0.702132 0.780665 0.613933
271 16 2 -0.0616365 0.688604 0.806698 0.651226
710 40 2 -0.0543881 0.75179 0.620766 0.582935
708 40 2 -0.0616365 0.824201 0.68815 0.632013
717 40 1 0.0622985 0.868494 0.716322 0.6308
624 35 1 0.0622985 0.938641 0.991298 0.647765
711 40 2 -0.018412 0.716295 0.614 0.62743
720 40 1 0.0629322 0.654797 0.545771 0.590395
288 16 1 0.0629322 0.600985 0.757498 0.660612
712 40 2 -0.0543881 0.663163 0.574734 0.627279
162 9 1 0.0629322 0.309748 0.350148 0.989305
324 18 1 0.0629322 0.364418 0.243693 0.671159
314 18 2 -0.0543881 0.459088 0.330392 0.672895
261 15 2 -0.018412 0.0916025 0.248136 0.674314
262 15 2 -0.0543881 0.0507644 0.22397 0.712991
216 12 1 0.0629322 0.126263 0.495979 0.96868
323 18 1 0.0629322 0.444393 0.313728 0.711464
256 15 2 -0.018412 0.155312 0.251747 0.684254
214 12 1 0.0622985 0.186412 0.455767 0.784158
206 12 2 -0.0543881 0.144924 0.476917 0.860298
215 12 1 0.0629322 0.18345 0.459087 0.884536
205 12 2 -0.0616365 0.145924 0.476873 0.804643
255 15 2 -0.0543881 0.179717 0.230209 0.732965
265 15 1 0.0629322 0.229839 0.237652 0.742024
672 38 2 -0.0616365 0.110236 0.129328 0.931811
432 24 1 0.0629322 0.240341 0.0537817 0.67085
671 38 2 -0.0543881 0.0584 0.160979 0.953239
160 9 1 0.0622985 0.323878 0.128473 0.997788
680 38 1 0.0629322 0.0408153 0.20525 0.935108
418 24 2 -0.018412 0.398369 0.0852389 0.681167
419 24 2 -0.0543881 0.440692 0.11914 0.712042
428 24 1 0.0629322 0.490946 0.113482 0.703961
423 24 2 -0.018412 0.333343 0.0865752 0.69317
161 9 1 0.0629322 0.341396 0.246858 0.978224
429 24 1 0.0622985 0.451242 0.194393 0.771389
420 24 2 -0.0616365 0.417043 0.162173 0.749929
827 46 1 0.0629322 0.433902 0.477446 0.710097
422 24 2 -0.0543881 0.310963 0.125246 0.734805
421 24 2 -0.0616365 0.352655 0.164801 0.760839
818 46 2 -0.0543881 0.384588 0.499473 0.711743
430 24 1 0.0622985 0.335931 0.200568 0.793134
816 46 2 -0.0616365 0.274412 0.488383 0.696279
170 10 2 -0.0543881 0.369303 0.0800728 0.877648
180 10 1 0.0629322 0.248802 0.0926394 0.863657
171 10 2 -0.018412 0.335178 0.0431529 0.844387
172 10 2 -0.0543881 0.270481 0.0522542 0.838869
179 10 1 0.0629322 0.347108 0.12094 0.901777
569 32 1 0.0622985 0.478426 0.434402 0.935074
817 46 2 -0.0616365 0.333716 0.460998 0.701401