LAMMPS (7 Jan 2022)
OMP_NUM_THREADS environment is not set. Defaulting to 1 thread. (src/comm.cpp:98)
  using 1 OpenMP thread(s) per MPI task
#-------------------------------------------------------------------------------
# LAMMPS Stage 1:
# Created using Scymol 2023.
#-------------------------------------------------------------------------------
echo                both
#-------------------------------------------------------------------------------
# Substage 1.1: Initialization
# Initialize LAMMPS run.
#-------------------------------------------------------------------------------
units               real
boundary            p p p
atom_style          full
pair_style          lj/cut 12.0
pair_modify         mix arithmetic
bond_style          harmonic
angle_style         harmonic
dihedral_style      fourier
improper_style      cvff
special_bonds       amber
read_data           structure.data
Reading data file ...
  orthogonal box = (0 0 0) to (21.989593 21.989593 2198.9593)
  1 by 1 by 1 MPI processor grid
  reading atoms ...
  900 atoms
  reading velocities ...
  900 velocities
  scanning bonds ...
  2 = max bonds/atom
  scanning angles ...
  3 = max angles/atom
  scanning dihedrals ...
  8 = max dihedrals/atom
  reading bonds ...
  950 bonds
  reading angles ...
  1500 angles
  reading dihedrals ...
  2200 dihedrals
Finding 1-2 1-3 1-4 neighbors ...
  special bond factors lj:    0        0        0.5     
  special bond factors coul:  0        0        0.8333333333333334
     3 = max # of 1-2 neighbors
     6 = max # of 1-3 neighbors
    14 = max # of 1-4 neighbors
    15 = max # of special neighbors
  special bonds CPU = 0.001 seconds
  read_data CPU = 0.019 seconds

#-------------------------------------------------------------------------------
# Declaring variables:
#-------------------------------------------------------------------------------
variable            R equal 0.00198722
variable            sysvol equal vol
variable            sysmass equal mass(all)/6.0221367e+023
variable            sysdensity equal v_sysmass/v_sysvol/1.0e-24
variable            coulomb equal ecoul+elong
variable            etotal equal etotal
variable            pe equal pe
variable            ke equal ke
variable            evdwl equal evdwl
variable            epair equal epair
variable            ebond equal ebond
variable            eangle equal eangle
variable            edihed equal edihed
variable            eimp equal eimp
variable            lx equal lx
variable            ly equal ly
variable            lz equal lz
variable            xhi equal xhi
variable            yhi equal yhi
variable            zhi equal zhi
variable            xlo equal xlo
variable            ylo equal ylo
variable            zlo equal zlo
variable            Nthermo equal 0
variable            cella equal lx
variable            cellb equal sqrt(ly*ly+xy*xy)
variable            cellc equal sqrt(lz*lz+xz*xz+yz*yz)
variable            cellalpha equal acos((xy*xz+ly*yz)/(v_cellb*v_cellc))
variable            cellbeta equal acos(xz/v_cellc)
variable            cellgamma equal acos(xy/v_cellb)
variable            p equal press
variable            pxx equal pxx
variable            pyy equal pyy
variable            pzz equal pzz
variable            pyz equal pyz
variable            pxz equal pxz
variable            pxy equal pxy
variable            sxx equal -pxx
variable            syy equal -pyy
variable            szz equal -pzz
variable            syz equal -pyz
variable            sxz equal -pxz
variable            sxy equal -pxy
variable            fmax equal fmax
variable            fnorm equal fnorm
variable            time equal step*dt+0.000001
thermo_style        custom step v_time press vol v_sysdensity temp ebond eangle edihed eimp evdwl ecoul etail elong pe ke
thermo_modify       flush yes
reset_timestep      0
#-------------------------------------------------------------------------------
# Substage 1.2: Minimization
# Initialize LAMMPS run.
#-------------------------------------------------------------------------------
min_style           cg
min_modify          dmax 0.05
thermo_style        custom step fmax fnorm press vol v_sysdensity v_sxx v_syy v_szz v_syz v_sxz v_sxy pe v_cella v_cellb v_cellc v_cellalpha v_cellbeta v_cellgamma
WARNING: New thermo_style command, previous thermo_modify settings will be lost (src/output.cpp:888)
dump                minrun all custom 1000 1.2_minimization.lammpstrj id mol type q xs ys zs
thermo              100
minimize            0.0 0.0 1000 10000
WARNING: Using 'neigh_modify every 1 delay 0 check yes' setting during minimization (src/min.cpp:187)
  generated 1 of 1 mixed pair_coeff terms from arithmetic mixing rule
Neighbor list info ...
  update every 1 steps, delay 0 steps, check yes
  max neighbors/atom: 2000, page size: 100000
  master list distance cutoff = 14
  ghost atom cutoff = 14
  binsize = 7, bins = 4 4 315
  1 neighbor lists, perpetual/occasional/extra = 1 0 0
  (1) pair lj/cut, perpetual
      attributes: half, newton on
      pair build: half/bin/newton
      stencil: half/bin/3d
      bin: standard
Per MPI rank memory allocation (min/avg/max) = 13.26 | 13.26 | 13.26 Mbytes
Step Fmax Fnorm Press Volume v_sysdensity v_sxx v_syy v_szz v_syz v_sxz v_sxy PotEng v_cella v_cellb v_cellc v_cellalpha v_cellbeta v_cellgamma 
       0    55.395171    1098.4652    -948.2879    1063289.6  0.010007691     1010.891    963.80972    870.16301   -59.860187    2.2214725   -12.365109    1450.8398    21.989593    21.989593    2198.9593    1.5707963    1.5707963    1.5707963 
     100 2.9923271e-10 1.7850628e-09 9.951111e-11    1063289.6  0.010007691 -9.2969846e-11 -6.922642e-11 -1.3633706e-10 5.2427596e-12 3.3936093e-11 2.5820025e-12    581.12836    21.989593    21.989593    2198.9593    1.5707963    1.5707963    1.5707963 
     200 2.9130248e-10 1.7639585e-09 2.5052832e-11    1063289.6  0.010007691 -2.0879168e-11 -9.7884701e-12 -4.4490859e-11 -2.37137e-12 5.9289262e-12 3.3139899e-13    581.12836    21.989593    21.989593    2198.9593    1.5707963    1.5707963    1.5707963 
     300 2.9130248e-10 1.7624697e-09 2.4182848e-11    1063289.6  0.010007691 -2.1142637e-11 -9.3577545e-12 -4.2048152e-11 -3.6577892e-12 6.2276778e-12 4.763073e-13    581.12836    21.989593    21.989593    2198.9593    1.5707963    1.5707963    1.5707963 
     400 2.9130248e-10 1.7626071e-09 2.3762671e-11    1063289.6  0.010007691 -2.1241839e-11 -9.7169896e-12 -4.0329184e-11 -4.0023044e-12 6.4961878e-12 2.0711005e-13    581.12836    21.989593    21.989593    2198.9593    1.5707963    1.5707963    1.5707963 
     500 2.9130248e-10 1.7622178e-09 2.400682e-11    1063289.6  0.010007691 -2.1230155e-11 -9.3323239e-12 -4.145798e-11 -3.5839031e-12 6.1248101e-12 4.7619275e-13    581.12836    21.989593    21.989593    2198.9593    1.5707963    1.5707963    1.5707963 
     600 2.9130248e-10 1.7621755e-09 2.3322562e-11    1063289.6  0.010007691 -2.1067491e-11 -9.6232861e-12 -3.9276909e-11 -3.6242254e-12 6.1213736e-12 2.1352496e-13    581.12836    21.989593    21.989593    2198.9593    1.5707963    1.5707963    1.5707963 
     700 2.9130248e-10 1.7621409e-09 2.352761e-11    1063289.6  0.010007691 -2.093988e-11 -9.4516872e-12 -4.0191263e-11 -3.7872902e-12 6.1328288e-12 4.3163201e-13    581.12836    21.989593    21.989593    2198.9593    1.5707963    1.5707963    1.5707963 
     800 2.9130248e-10 1.7621481e-09 2.3225117e-11    1063289.6  0.010007691 -2.0970351e-11 -9.2590107e-12 -3.9445988e-11 -3.8450817e-12 6.2006436e-12 2.6175137e-13    581.12836    21.989593    21.989593    2198.9593    1.5707963    1.5707963    1.5707963 
     900 2.9130248e-10 1.7622618e-09 2.3576333e-11    1063289.6  0.010007691 -2.0926592e-11 -9.5023191e-12 -4.0300088e-11 -3.9964622e-12 6.2902232e-12 4.6038457e-13    581.12836    21.989593    21.989593    2198.9593    1.5707963    1.5707963    1.5707963 
    1000 2.9130248e-10 1.7624887e-09 2.250153e-11    1063289.6  0.010007691 -2.1095213e-11 -9.3696679e-12 -3.7039708e-11 -4.4581069e-12 6.4686953e-12 2.3551895e-13    581.12836    21.989593    21.989593    2198.9593    1.5707963    1.5707963    1.5707963 
Loop time of 0.714774 on 1 procs for 1000 steps with 900 atoms

100.6% CPU use with 1 MPI tasks x 1 OpenMP threads

Minimization stats:
  Stopping criterion = max iterations
  Energy initial, next-to-last, final = 
      1450.83980628683   581.128361716439   581.128361716438
  Force two-norm initial, final = 1098.4652 1.7624887e-09
  Force max component initial, final = 55.395171 2.9130248e-10
  Final line search alpha, max atom move = 1 2.9130248e-10
  Iterations, force evaluations = 1000 2000

MPI task timing breakdown:
Section |  min time  |  avg time  |  max time  |%varavg| %total
---------------------------------------------------------------
Pair    | 0.20628    | 0.20628    | 0.20628    |   0.0 | 28.86
Bond    | 0.4523     | 0.4523     | 0.4523     |   0.0 | 63.28
Neigh   | 0          | 0          | 0          |   0.0 |  0.00
Comm    | 0.025164   | 0.025164   | 0.025164   |   0.0 |  3.52
Output  | 0.002663   | 0.002663   | 0.002663   |   0.0 |  0.37
Modify  | 0          | 0          | 0          |   0.0 |  0.00
Other   |            | 0.02837    |            |       |  3.97

Nlocal:            900 ave         900 max         900 min
Histogram: 1 0 0 0 0 0 0 0 0 0
Nghost:           3773 ave        3773 max        3773 min
Histogram: 1 0 0 0 0 0 0 0 0 0
Neighs:           5200 ave        5200 max        5200 min
Histogram: 1 0 0 0 0 0 0 0 0 0

Total # of neighbors = 5200
Ave neighs/atom = 5.7777778
Ave special neighs/atom = 9.6666667
Neighbor list builds = 0
Dangerous builds = 0
undump              minrun
#-------------------------------------------------------------------------------
# Substage 1.3: Velocities
# Initialize velocities to 298.15 (seed 1234) using a gaussian distribution.
#-------------------------------------------------------------------------------
velocity            all create 298.15 1234 dist gaussian mom yes rot no
reset_timestep      0
#-------------------------------------------------------------------------------
# Substage 1.4: NVT-dynamics
# Run 5000 steps with a timestep of 1.0. T from 298.15 to 298.15.
#-------------------------------------------------------------------------------
thermo_style        custom step v_time press vol v_sysdensity temp ebond eangle edihed eimp evdwl ecoul etail elong pe ke
fix                 1 all nvt temp 298.15 298.15 100 drag 1 nreset 1000 mtk yes
fix                 2 all ave/time 1 999 1000 v_time c_thermo_temp c_thermo_press v_sysvol v_sysdensity v_cella v_cellb v_cellc v_etotal v_pe v_ke v_evdwl v_coulomb v_sxx v_syy v_szz v_syz v_sxz v_sxy v_xhi v_yhi v_zhi v_xlo v_ylo v_zlo file 1.4_nvt_instantaneous.out
dump                1 all custom 1000 1.4_nvt.lammpstrj id mol type q xs ys zs
timestep            1.0
run                 5000
  generated 1 of 1 mixed pair_coeff terms from arithmetic mixing rule
Per MPI rank memory allocation (min/avg/max) = 12.13 | 12.13 | 12.13 Mbytes
Step v_time Press Volume v_sysdensity Temp E_bond E_angle E_dihed E_impro E_vdwl E_coul E_tail E_long PotEng KinEng 
       0        1e-06    34.348683    1063289.6  0.010007691       298.15    41.099777    48.844595 1.2846391e-12            0    491.18399            0            0            0    581.12836    798.96694 
     100          100    8.0169099    1063289.6  0.010007691    176.77663    242.19827     153.5409    86.961901            0    503.65323            0            0            0     986.3543    473.71687 
     200          200    -14.49446    1063289.6  0.010007691    183.76671    227.84067    177.72414    142.47764            0    495.95906            0            0            0    1044.0015    492.44852 
     300          300    12.180119    1063289.6  0.010007691    221.02427    192.79698    198.20708    116.69702            0     509.8138            0            0            0    1017.5149    592.28941 
     400          400   -15.179292    1063289.6  0.010007691    197.11067    290.55818    206.55284    166.32354            0    499.78327            0            0            0    1163.2178    528.20697 
     500          500   -8.9771073    1063289.6  0.010007691    243.62374    225.31187    202.24117    167.12315            0    503.98822            0            0            0    1098.6644    652.85029 
     600          600    12.492273    1063289.6  0.010007691    282.81537    258.05221     192.1632    102.97506            0    503.03073            0            0            0    1056.2212      757.874 
     700          700   -8.0418023    1063289.6  0.010007691    258.67018    311.09852    215.41499    144.20813            0    501.24618            0            0            0    1171.9678    693.17095 
     800          800   -8.8321769    1063289.6  0.010007691    295.68165    229.08411    226.16716    151.59425            0     500.5311            0            0            0    1107.3766    792.35238 
     900          900    19.139346    1063289.6  0.010007691    292.79472    287.61497    213.45461    145.03105            0    504.87163            0            0            0    1150.9723    784.61612 
    1000         1000     11.87542    1063289.6  0.010007691    297.49185    250.80426    220.67214    176.84207            0    505.37874            0            0            0    1153.6972    797.20326 
    1100         1100    9.5325764    1063289.6  0.010007691    322.33091    243.18332    185.14922    167.11423            0    501.15701            0            0            0    1096.6038    863.76568 
    1200         1200    4.7213958    1063289.6  0.010007691    293.03114    281.03237    219.72458    176.87116            0    504.01212            0            0            0    1181.6402    785.24969 
    1300         1300    18.027848    1063289.6  0.010007691    305.87123    248.26144    209.78836    183.45428            0    502.41716            0            0            0    1143.9212    819.65788 
    1400         1400   0.07695162    1063289.6  0.010007691    291.50133    301.66329    216.24315    164.98325            0    502.53042            0            0            0    1185.4201    781.15018 
    1500         1500   -17.859666    1063289.6  0.010007691     299.0679    285.24342    214.39062    162.78354            0    501.12657            0            0            0    1163.5441    801.42668 
    1600         1600    28.754151    1063289.6  0.010007691    308.26567    249.88174    213.95803    166.02461            0    507.81875            0            0            0    1137.6831    826.07438 
    1700         1700   -2.2379579    1063289.6  0.010007691    299.47185    295.74373    213.00358     152.5251            0    500.94866            0            0            0    1162.2211    802.50917 
    1800         1800    8.7752332    1063289.6  0.010007691    293.37274     273.2094    212.72573    183.83736            0    507.88731            0            0            0    1177.6598    786.16509 
    1900         1900    9.1436239    1063289.6  0.010007691    296.40504    268.58089    219.36713    177.58302            0    503.82803            0            0            0    1169.3591    794.29089 
    2000         2000    14.357346    1063289.6  0.010007691    299.25919    279.41478    213.61322    163.36869            0    506.49254            0            0            0    1162.8892    801.93929 
    2100         2100   -2.6338274    1063289.6  0.010007691    293.56149    287.98707    220.12217    170.07282            0     499.2533            0            0            0    1177.4354    786.67088 
    2200         2200    23.127547    1063289.6  0.010007691    313.65081    246.53184    217.22302    153.74573            0    506.69702            0            0            0    1124.1976     840.5052 
    2300         2300   -9.5126013    1063289.6  0.010007691    302.48394    254.95777    240.81268    158.87556            0    499.19233            0            0            0    1153.8383    810.58079 
    2400         2400   -4.5271027    1063289.6  0.010007691     276.3337    289.05129    251.18685    181.85266            0     502.2697            0            0            0    1224.3605    740.50473 
    2500         2500    13.102707    1063289.6  0.010007691    295.17233    277.51034    218.54424    171.01274            0    506.66537            0            0            0    1173.7327    790.98753 
    2600         2600     9.836398    1063289.6  0.010007691    303.18744    266.94971    217.64962    163.31717            0    503.25887            0            0            0    1151.1754    812.46601 
    2700         2700    8.6400165    1063289.6  0.010007691    295.55033    279.28369    211.70848    175.43939            0    506.20115            0            0            0    1172.6327    792.00047 
    2800         2800   -13.736075    1063289.6  0.010007691    310.04203    276.32111     202.5278    154.36147            0    500.20189            0            0            0    1133.4123    830.83458 
    2900         2900    25.001237    1063289.6  0.010007691    303.82681     259.0902    224.89614    158.19343            0    507.56632            0            0            0    1149.7461    814.17935 
    3000         3000   -2.4437216    1063289.6  0.010007691    289.85379     299.4416    223.08648     166.8215            0    498.94133            0            0            0    1188.2909    776.73519 
    3100         3100    15.835444    1063289.6  0.010007691    304.04415    263.41373    221.24539    157.36197            0     507.6302            0            0            0    1149.6513    814.76177 
    3200         3200    6.5733675    1063289.6  0.010007691    307.18291    274.98511    198.78088    166.93342            0    499.88137            0            0            0    1140.5808    823.17285 
    3300         3300    19.617613    1063289.6  0.010007691    293.59419    271.89398     214.6089    184.17993            0    507.34017            0            0            0     1178.023     786.7585 
    3400         3400  -0.96381189    1063289.6  0.010007691    299.63525    265.93294    217.96078     179.5598            0    497.91233            0            0            0    1161.3658    802.94702 
    3500         3500    4.5970516    1063289.6  0.010007691     294.3341    287.40391    222.31689    163.62337            0    502.78243            0            0            0    1176.1266    788.74128 
    3600         3600    6.7092242    1063289.6  0.010007691    295.35761    279.89491     237.0978    153.40318            0    502.65741            0            0            0    1173.0533    791.48403 
    3700         3700    1.8274193    1063289.6  0.010007691    295.65056    280.71706    230.40215     157.8373            0     503.2384            0            0            0    1172.1949    792.26906 
    3800         3800    8.8371231    1063289.6  0.010007691    295.52583    272.14115    227.71491    164.56069            0    508.41405            0            0            0    1172.8308    791.93482 
    3900         3900   -1.6934374    1063289.6  0.010007691    296.84763    285.34412    220.00282    165.73845            0    498.17553            0            0            0    1169.2609     795.4769 
    4000         4000    9.0319308    1063289.6  0.010007691    289.00783    274.45212    237.59857    172.87374            0    505.41708            0            0            0    1190.3415    774.46823 
    4100         4100    1.9527376    1063289.6  0.010007691    297.64088    279.44532    216.63347    167.24855            0    503.23614            0            0            0    1166.5635    797.60263 
    4200         4200    17.521261    1063289.6  0.010007691    301.25207    282.57212    211.65916     156.7702            0    506.71309            0            0            0    1157.7146    807.27969 
    4300         4300   -0.7024675    1063289.6  0.010007691    307.80601    266.70939    203.71107     168.2323            0    499.71429            0            0            0     1138.367    824.84261 
    4400         4400    8.5536884    1063289.6  0.010007691    307.67166    273.79753    198.13553     164.9865            0    503.14498            0            0            0    1140.0645    824.48258 
    4500         4500    16.791162    1063289.6  0.010007691    301.47019    278.26305    210.59254     168.4366            0    499.41949            0            0            0    1156.7117    807.86421 
    4600         4600    3.0638949    1063289.6  0.010007691    299.39941    266.63022    222.35666    168.79729            0    503.40457            0            0            0    1161.1887    802.31505 
    4700         4700   -5.5824006    1063289.6  0.010007691    295.80863     283.1322    222.84823    164.89874            0    501.96521            0            0            0    1172.8444    792.69265 
    4800         4800    24.865276    1063289.6  0.010007691    292.77157    268.87401    231.17966    172.22004            0    507.33871            0            0            0    1179.6124    784.55409 
    4900         4900   -3.1968062    1063289.6  0.010007691    297.99564    279.07949    218.83975     168.5962            0    498.23959            0            0            0     1164.755    798.55329 
    5000         5000    2.8417219    1063289.6  0.010007691    301.76613    272.02903    224.34626    155.04574            0     504.6808            0            0            0    1156.1018    808.65726 
Loop time of 2.15916 on 1 procs for 5000 steps with 900 atoms

Performance: 200.078 ns/day, 0.120 hours/ns, 2315.715 timesteps/s
99.9% CPU use with 1 MPI tasks x 1 OpenMP threads

MPI task timing breakdown:
Section |  min time  |  avg time  |  max time  |%varavg| %total
---------------------------------------------------------------
Pair    | 0.59178    | 0.59178    | 0.59178    |   0.0 | 27.41
Bond    | 1.2081     | 1.2081     | 1.2081     |   0.0 | 55.95
Neigh   | 0.062149   | 0.062149   | 0.062149   |   0.0 |  2.88
Comm    | 0.066721   | 0.066721   | 0.066721   |   0.0 |  3.09
Output  | 0.010775   | 0.010775   | 0.010775   |   0.0 |  0.50
Modify  | 0.19863    | 0.19863    | 0.19863    |   0.0 |  9.20
Other   |            | 0.02103    |            |       |  0.97

Nlocal:            900 ave         900 max         900 min
Histogram: 1 0 0 0 0 0 0 0 0 0
Nghost:           3898 ave        3898 max        3898 min
Histogram: 1 0 0 0 0 0 0 0 0 0
Neighs:           5960 ave        5960 max        5960 min
Histogram: 1 0 0 0 0 0 0 0 0 0

Total # of neighbors = 5960
Ave neighs/atom = 6.6222222
Ave special neighs/atom = 9.6666667
Neighbor list builds = 108
Dangerous builds = 0
unfix               1
unfix               2
undump              1
reset_timestep      0
#-------------------------------------------------------------------------------
# Substage 1.5: Uniaxial compression dynamics
# Uniaxial compression in the z axis for 100000 steps with a timestep of 1.0.
# Temperature control from 298.15 to 298.15 K. Deformation applied every 1000
# steps, with an t strain equal to: XX)
#-------------------------------------------------------------------------------
variable            strainrate equal ln((lx+4.0)/lz)/100000.0
variable            strainrateconst equal ${strainrate}
variable            strainrateconst equal -4.43804328967088e-05
thermo_style        custom step v_time press vol v_sysdensity temp ebond eangle edihed eimp evdwl ecoul etail elong pe ke
fix                 1 all nvt temp 298.15 298.15 100 drag 1 nreset 1000 mtk yes
fix                 2 all ave/time 1 999 1000 v_time c_thermo_temp c_thermo_press v_sysvol v_sysdensity v_cella v_cellb v_cellc v_etotal v_pe v_ke v_evdwl v_coulomb v_sxx v_syy v_szz v_syz v_sxz v_sxy v_xhi v_yhi v_zhi v_xlo v_ylo v_zlo file 1.5_uniaxialcompression_instantaneous.out
variable            wzhigh equal "v_zhi - 2.0"
variable            wzlow equal "v_zlo + 2.0"
fix                 upperW all indent 10 plane z v_wzhigh hi units box
fix                 lowerW all indent 10 plane z v_wzlow lo units box
fix                 dfrm all deform 1000 z trate ${strainrate} units box remap x
fix                 dfrm all deform 1000 z trate -4.43804328967088e-05 units box remap x
dump                1 all custom 1000 1.5_uniaxialcompression.lammpstrj id mol type q xs ys zs
timestep            1.0
run                 100000
  generated 1 of 1 mixed pair_coeff terms from arithmetic mixing rule
Per MPI rank memory allocation (min/avg/max) = 12.13 | 12.13 | 12.13 Mbytes
Step v_time Press Volume v_sysdensity Temp E_bond E_angle E_dihed E_impro E_vdwl E_coul E_tail E_long PotEng KinEng 
       0        1e-06    2.8417219    1063289.6  0.010007691    301.76613    272.02903    224.34626    155.04574            0     504.6808            0            0            0    1156.1018    808.65726 
     100          100   -9.1725506    1063289.6  0.010007691    298.86546    269.40516    230.79934    164.34718            0    497.76814            0            0            0    1162.3198    800.88418 
     200          200    23.658252    1063289.6  0.010007691    288.38836    290.71216    219.12146    175.70508            0    506.37024            0            0            0     1191.909     772.8082 
     300          300  0.081963511    1063289.6  0.010007691    298.71616    268.78019    226.23322    165.26337            0    503.05945            0            0            0    1163.3362    800.48411 
     400          400   -6.1016516    1063289.6  0.010007691    303.34784    262.00463    220.77324    165.50906            0    502.72091            0            0            0    1151.0078    812.89584 
     500          500    19.794015    1063289.6  0.010007691    298.39792    276.92059    214.72189    171.12709            0    503.05133            0            0            0    1165.8209    799.63129 
     600          600    3.2238365    1063289.6  0.010007691    309.87379     249.3452    214.01462    169.79451            0    499.22693            0            0            0    1132.3813    830.38375 
     700          700    22.882764    1063289.6  0.010007691    302.07551    270.04955    207.76224    167.83965            0    509.57544            0            0            0    1155.2269    809.48632 
     800          800   -4.7142271    1063289.6  0.010007691    298.45105    288.65614    212.77997    167.56562            0    496.00038            0            0            0    1165.0021    799.77367 
     900          900    26.206526    1063289.6  0.010007691     298.2817    258.56388    213.24442    182.73566            0    510.03438            0            0            0    1164.5783    799.31985 
    1000         1000   -7.0712988    1017132.2   0.01046184     301.2484    289.97339     202.0411    167.78356            0    497.40958            0            0            0    1157.2076    807.26986 
    1100         1100   -286.14962    1017132.2   0.01046184    318.68944    476.77782    251.26794    158.81011            0    419.94946            0            0            0    1306.8053    854.00748 
    1200         1200    114.45838    1017132.2   0.01046184    299.56629    273.91295    265.18227    176.05207            0    588.15001            0            0            0    1303.2973    802.76224 
    1300         1300   -83.109576    1017132.2   0.01046184    316.92913    372.26069    238.68664    160.31646            0    447.81026            0            0            0    1219.0741    849.29026 
    1400         1400    131.77885    1017132.2   0.01046184    309.00026    255.04115    237.72946    172.33644            0    546.19383            0            0            0    1211.3009     828.0429 
    1500         1500   -65.281074    1017132.2   0.01046184    314.84797    291.22373    228.93047    165.12467            0    495.78756            0            0            0    1181.0664     843.7133 
    1600         1600   -50.415188    1017132.2   0.01046184     314.2827    313.23672    228.39152    150.44393            0    483.20268            0            0            0    1175.2749     842.1985 
    1700         1700    135.59986    1017132.2   0.01046184    308.58066    247.83024     228.4876    166.08325            0    545.72721            0            0            0    1188.1283    826.91849 
    1800         1800   -151.89849    1017132.2   0.01046184     301.5792     362.6293     240.3901    150.16479            0    454.98133            0            0            0    1208.1655    808.15632 
    1900         1900     208.3445    1017132.2   0.01046184    297.58232     257.3994    222.69603    153.02784            0    584.61304            0            0            0    1217.7363     797.4457 
    2000         2000   -232.35125    972978.44  0.010936598    287.24779    455.25382    218.81013    146.89468            0    426.81354            0            0            0    1247.7722    769.75176 
    2100         2100   -125.64625    972978.44  0.010936598    314.49495    380.41486    255.53289    156.80273            0    495.07378            0            0            0    1287.8243    842.76728 
    2200         2200   -26.958783    972978.44  0.010936598    306.91559    317.44377    256.92855    172.64878            0    519.95852            0            0            0    1266.9796     822.4565 
    2300         2300    67.621794    972978.44  0.010936598    300.65409    353.19275     242.5207    169.48214            0    498.92045            0            0            0     1264.116    805.67727 
    2400         2400   -9.9351583    972978.44  0.010936598    302.71717    316.45841    225.09906    191.06154            0     507.5016            0            0            0    1240.1206    811.20581 
    2500         2500    13.246256    972978.44  0.010936598    297.27784    315.63996    238.31975    168.36487            0    528.44118            0            0            0    1250.7658    796.62978 
    2600         2600   -40.984975    972978.44  0.010936598    296.55856    352.28221    252.04724    158.85442            0     486.6768            0            0            0    1249.8607    794.70227 
    2700         2700    92.184177    972978.44  0.010936598    313.07665    277.88223    227.01179    156.01449            0    543.77064            0            0            0    1204.6792     838.9666 
    2800         2800   -134.95392    972978.44  0.010936598    297.47727    369.34641    248.78607    163.39879            0    466.22501            0            0            0    1247.7563    797.16419 
    2900         2900    157.65509    972978.44  0.010936598    299.58016     278.9709    237.25789     166.8446            0    558.76006            0            0            0    1241.8334     802.7994 
    3000         3000   -135.97451    930741.42    0.0114329    283.76932    407.41236    237.23761    176.10123            0    464.67624            0            0            0    1285.4275    760.43033 
    3100         3100   -301.60424    930741.42    0.0114329    312.09048    500.68526     275.9383    163.19486            0    452.65388            0            0            0    1392.4723    836.32393 
    3200         3200    92.791369    930741.42    0.0114329    306.63879    308.43745    273.07643    184.98727            0    584.24592            0            0            0    1350.7471    821.71476 
    3300         3300   -31.342005    930741.42    0.0114329    302.98413    451.17404    263.03859    154.17184            0    459.49754            0            0            0     1327.882     811.9212 
    3400         3400    87.439641    930741.42    0.0114329     302.5423    311.03817    246.95787     181.2331            0    556.06732            0            0            0    1295.2965     810.7372 
    3500         3500   -128.78646    930741.42    0.0114329    302.80755    381.86391      243.421     160.2278            0    494.57232            0            0            0     1280.085    811.44801 
    3600         3600    93.370776    930741.42    0.0114329    302.28327    345.72228    252.62257    144.83882            0    529.71224            0            0            0    1272.8959    810.04305 
    3700         3700    38.580738    930741.42    0.0114329     313.7316    314.46317    235.61031     166.8623            0    518.50329            0            0            0    1235.4391    840.72169 
    3800         3800   -94.865169    930741.42    0.0114329     303.8911     347.6824    270.74287    161.08727            0    485.50439            0            0            0    1265.0169    814.35163 
    3900         3900    127.92009    930741.42    0.0114329    305.89036     282.7761    248.45319    178.61478            0    547.78459            0            0            0    1257.6287    819.70915 
    4000         4000   -143.13118    890337.91  0.011951725    298.96252    412.85691    244.29887    163.12397            0    457.31858            0            0            0    1277.5983    801.14428 
    4100         4100   -220.02558    890337.91  0.011951725    325.48088    462.83768    271.17605    166.43839            0    467.19986            0            0            0     1367.652    872.20681 
    4200         4200   -9.6407955    890337.91  0.011951725     308.3448    360.41008    290.83235    161.84352            0     550.3742            0            0            0    1363.4602    826.28645 
    4300         4300     63.41429    890337.91  0.011951725    327.42218    389.62342    256.31901    141.94414            0    489.40425            0            0            0    1277.2908    877.40902 
    4400         4400   -11.353832    890337.91  0.011951725    315.08429    348.99425     265.3008    164.70375            0    503.63471            0            0            0    1282.6335    844.34657 
    4500         4500     21.52375    890337.91  0.011951725    309.25062    333.81354    238.90065    171.27574            0    539.73659            0            0            0    1283.7265     828.7138 
    4600         4600   -81.316555    890337.91  0.011951725    308.03969    405.76148    239.62552    166.16435            0    466.98884            0            0            0    1278.5402    825.46883 
    4700         4700    181.75992    890337.91  0.011951725    294.06236     307.4371    248.65918    188.60234            0    567.77871            0            0            0    1312.4773    788.01308 
    4800         4800    -195.5812    890337.91  0.011951725    294.80952    441.90944    253.49293     160.6888            0    455.26045            0            0            0    1311.3516    790.01528 
    4900         4900    223.90436    890337.91  0.011951725    295.61021    291.04188     270.4671    162.58267            0    583.96386            0            0            0    1308.0555    792.16093 
    5000         5000   -238.41865    851688.31  0.012494094    290.45289    476.62219    247.73728    158.14083            0    440.18419            0            0            0    1322.6845    778.34061 
    5100         5100   -190.62923    851688.31  0.012494094    309.65936    480.23107    293.11183    160.53971            0    481.42966            0            0            0    1415.3123    829.80914 
    5200         5200    39.753809    851688.31  0.012494094    303.67329    319.35773    312.18997    196.48308            0    552.69234            0            0            0    1380.7231    813.76795 
    5300         5300   -13.830794    851688.31  0.012494094    308.12388    429.60368    275.76247    154.85889            0    480.18875            0            0            0    1340.4138    825.69442 
    5400         5400    71.615474    851688.31  0.012494094    295.55399    344.85067    269.59541    197.01365            0    536.27011            0            0            0    1347.7298    792.01029 
    5500         5500   -75.457924    851688.31  0.012494094     305.4766    370.13954    254.54576    180.47848            0    501.02678            0            0            0    1306.1906    818.60038 
    5600         5600    42.722218    851688.31  0.012494094    291.68764    384.62833    260.64377    177.07685            0    516.97653            0            0            0    1339.3255    781.64945 
    5700         5700   -1.5255383    851688.31  0.012494094    310.58035    355.26541    249.52463    166.12854            0     512.1424            0            0            0     1283.061    832.27715 
    5800         5800   -50.712586    851688.31  0.012494094    308.42458    359.23856    264.70886     174.0137            0    493.55085            0            0            0     1291.512    826.50023 
    5900         5900     115.3479    851688.31  0.012494094     312.0217    327.25089     256.3555    162.90412            0    535.91367            0            0            0    1282.4242     836.1396 
    6000         6000   -117.93601     814716.5  0.013061075    298.27581    406.55397    260.96735    170.81823            0    479.75218            0            0            0    1318.0917    799.30408 
    6100         6100   -321.47948     814716.5  0.013061075    320.36921    536.91347    292.40336    169.08663            0    449.95696            0            0            0    1448.3604    858.50883 
    6200         6200    95.851891     814716.5  0.013061075    303.96211    341.44421    311.86466    204.17456            0    575.61516            0            0            0    1433.0986    814.54193 
    6300         6300   -37.932769     814716.5  0.013061075    328.88104    437.02589    248.69974    180.52256            0    459.98179            0            0            0      1326.23    881.31839 
    6400         6400    87.359246     814716.5  0.013061075    308.53822     367.5289    251.10171    188.45944            0    543.15325            0            0            0    1350.2433    826.80475 
    6500         6500   -83.393509     814716.5  0.013061075     325.7959    338.27737    250.66551    188.56812            0    504.13857            0            0            0    1281.6496    873.05099 
    6600         6600   -29.122621     814716.5  0.013061075    300.46536    408.25071    251.24233    186.16016            0    495.94298            0            0            0    1341.5962    805.17152 
    6700         6700    132.50873     814716.5  0.013061075    328.23284    314.72796    229.40865    166.75658            0    547.98098            0            0            0    1258.8742    879.58136 
    6800         6800   -174.02816     814716.5  0.013061075    297.09497    425.40189    270.51889     178.6443            0    467.95006            0            0            0    1342.5151    796.13971 
    6900         6900    188.29238     814716.5  0.013061075    290.63803    333.15724    259.18886    196.07115            0    574.26295            0            0            0    1362.6802    778.83675 
    7000         7000   -230.32211    779349.63  0.013653787    309.75679    447.58661    243.84044    169.23232            0    446.98272            0            0            0    1307.6421    830.07021 
    7100         7100    -145.4387    779349.63  0.013653787    318.92264    450.23867    256.68844    191.94602            0    498.37928            0            0            0    1397.2524    854.63237 
    7200         7200   -103.12591    779349.63  0.013653787    294.56767    394.48198    292.29653     215.5639            0    517.16199            0            0            0    1419.5044    789.36721 
    7300         7300    139.33624    779349.63  0.013653787    325.53272     388.0375    251.99982    152.42305            0    519.13932            0            0            0    1311.5997    872.34574 
    7400         7400   -36.381712    779349.63  0.013653787    291.98146    416.85842    270.28021    185.51886            0    508.91707            0            0            0    1381.5746    782.43681 
    7500         7500    17.872377    779349.63  0.013653787    298.68084    347.04589    275.48655    192.10186            0    536.41941            0            0            0    1351.0537    800.38946 
    7600         7600   -70.762611    779349.63  0.013653787    293.70755    415.30628    293.45277    166.89219            0     483.7392            0            0            0    1359.3904    787.06229 
    7700         7700    131.50865    779349.63  0.013653787    320.75718    327.56206    249.93939    156.95988            0    549.64608            0            0            0    1284.1074    859.54848 
    7800         7800   -134.83729    779349.63  0.013653787    289.20538    402.12246    289.41365    201.93004            0    474.91016            0            0            0    1368.3763     774.9976 
    7900         7900     132.3805    779349.63  0.013653787    295.13741    330.43001     293.2374    178.44769            0    550.61162            0            0            0    1352.7267    790.89395 
    8000         8000   -122.99981    745518.04  0.014273395     298.4416    441.49557    256.37367    159.93661            0    485.48383            0            0            0    1343.2897    799.74836 
    8100         8100   -333.55171    745518.04  0.014273395    325.89861    524.58438    281.94525    181.60622            0     445.2519            0            0            0    1433.3878    873.32622 
    8200         8200    93.132245    745518.04  0.014273395    298.37936     341.4675    306.43295    224.32532            0    582.30605            0            0            0    1454.5318    799.58157 
    8300         8300   -108.22361    745518.04  0.014273395    320.93099    469.84894    272.89294    159.21764            0    455.52249            0            0            0     1357.482    860.01426 
    8400         8400    210.30679    745518.04  0.014273395    300.86488     345.8989    253.74449    209.94616            0    570.66004            0            0            0    1380.2496    806.24212 
    8500         8500   -223.24259    745518.04  0.014273395    295.85374    458.58309    256.41753    189.19474            0    473.42269            0            0            0    1377.6181    792.81353 
    8600         8600     103.9542    745518.04  0.014273395     295.7428    354.13388    276.05648    190.15376            0    546.13217            0            0            0    1366.4763    792.51625 
    8700         8700   -9.7980398    745518.04  0.014273395    319.28863    375.57159    257.88938    163.78863            0    501.69547            0            0            0    1298.9451    855.61315 
    8800         8800   -25.117064    745518.04  0.014273395    301.42384    355.28493    280.39452    200.83596            0    507.88544            0            0            0    1344.4008       807.74 
    8900         8900    75.063878    745518.04  0.014273395    307.98962    351.88272    265.97877    177.17391            0    530.90325            0            0            0    1325.9387    825.33465 
    9000         9000   -136.66598    713155.08  0.014921122    285.39952    431.59304    270.77128     204.5555            0    479.17687            0            0            0    1386.0967    764.79887 
    9100         9100   -276.28615    713155.08  0.014921122    354.93775    456.51064    286.75989    184.28768            0    451.43622            0            0            0    1378.9944     951.1438 
    9200         9200    5.3608295    713155.08  0.014921122    310.75177    348.07657    284.03156     256.4575            0    549.46777            0            0            0    1438.0334    832.73651 
    9300         9300    32.356457    713155.08  0.014921122    340.47656    391.82207    270.10972    171.61842            0    486.60646            0            0            0    1320.1567    912.39145 
    9400         9400    73.349274    713155.08  0.014921122    312.01001    364.93438    268.50545    213.60898            0    513.73738            0            0            0    1360.7862    836.10826 
    9500         9500   -33.573127    713155.08  0.014921122    304.62854    366.91965    267.35174    199.62283            0    528.76135            0            0            0    1362.6556    816.32779 
    9600         9600   -113.58252    713155.08  0.014921122      294.592    407.76301    271.08314    220.74704            0    476.07667            0            0            0    1375.6699     789.4324 
    9700         9700    227.53637    713155.08  0.014921122    293.85023    341.20652    271.00218    200.07217            0    561.39734            0            0            0    1373.6782    787.44462 
    9800         9800   -240.20524    713155.08  0.014921122    281.00425    489.68426     262.2185    197.73859            0      456.355            0            0            0    1405.9963    753.02063 
    9900         9900    262.89863    713155.08  0.014921122    287.40898    342.07623    271.75206    177.97103            0    594.33051            0            0            0    1386.1298     770.1837 
   10000        10000   -312.87453    682196.99  0.015598242    278.76856    513.99249    271.09913    189.22554            0    434.96819            0            0            0    1409.2853    747.02956 
   10100        10100   -185.72032    682196.99  0.015598242    335.40815     433.6911    269.11387    188.88616            0    485.77583            0            0            0     1377.467     898.8094 
   10200        10200   -48.000472    682196.99  0.015598242    294.92653    381.22687    294.69221    230.50912            0     535.6108            0            0            0     1442.039    790.32884 
   10300        10300    36.409596    682196.99  0.015598242     314.4608    418.92251    282.77652    170.90597            0    490.98414            0            0            0    1363.5891    842.67579 
   10400        10400    70.372228    682196.99  0.015598242    307.72223    369.41373    269.52222    185.36039            0    531.60733            0            0            0    1355.9037     824.6181 
   10500        10500   -51.697496    682196.99  0.015598242    308.73395     375.1711    233.49218    227.19418            0     506.4375            0            0            0     1342.295    827.32925 
   10600        10600   -60.921555    682196.99  0.015598242    289.88091    390.76067     282.9822     221.5556            0    490.59956            0            0            0     1385.898    776.80785 
   10700        10700    72.520728    682196.99  0.015598242    322.74958    333.83469    241.97163    190.18279            0    526.95101            0            0            0    1292.9401    864.88761 
   10800        10800   -56.481615    682196.99  0.015598242    289.25193    402.53623      273.495    215.86147            0    487.63158            0            0            0    1379.5243    775.12234 
   10900        10900     75.25019    682196.99  0.015598242    297.51733    363.02344    262.72558    213.21591            0    516.33674            0            0            0    1355.3017    797.27154 
   11000        11000    -126.6628     652582.8   0.01630609    304.69752    406.50545    250.62549    189.25939            0    487.20443            0            0            0    1333.5948    816.51263 
   11100        11100   -383.81864     652582.8   0.01630609    328.68462    531.65663     263.3775    170.93077            0    432.32947            0            0            0    1398.2944    880.79204 
   11200        11200    149.71178     652582.8   0.01630609    284.09843    344.37935    303.81824    242.32118            0    579.45519            0            0            0     1469.974    761.31227 
   11300        11300   -139.14427     652582.8   0.01630609     314.3452    460.52092    236.11742    219.47201            0    443.47881            0            0            0    1359.5892      842.366 
   11400        11400    188.99684     652582.8   0.01630609    308.08595    350.13807    253.52622    199.01098            0    551.56892            0            0            0    1354.2442    825.59278 
   11500        11500   -184.84984     652582.8   0.01630609     305.9023    403.75892    260.11797    206.33764            0    474.47296            0            0            0    1344.6875    819.74115 
   11600        11600    21.282381     652582.8   0.01630609    304.42672    361.66024    265.67003     206.2861            0    509.05621            0            0            0    1342.6726    815.78697 
   11700        11700    131.38046     652582.8   0.01630609    334.23329    326.43705    218.28801    189.95029            0    521.23107            0            0            0    1255.9064    895.66106 
   11800        11800   -173.22936     652582.8   0.01630609    297.78009    434.67321    264.61829    199.95723            0    454.13992            0            0            0    1353.3886    797.97567 
   11900        11900    208.86506     652582.8   0.01630609    319.24489    281.49448    253.81195     205.8017            0    547.83318            0            0            0    1288.9413    855.49592 
   12000        12000   -233.66623    624254.16   0.01704606    291.03334    445.79188    278.27207    190.35075            0    450.66606            0            0            0    1365.0808    779.89608 
   12100        12100   -232.73341    624254.16   0.01704606    329.72326     451.1224    287.04532    216.91815            0    463.71916            0            0            0     1418.805    883.57531 
   12200        12200   -107.06848    624254.16   0.01704606    303.64155    387.90075    309.44598     226.6903            0    508.56416            0            0            0    1432.6012     813.6829 
   12300        12300    151.73788    624254.16   0.01704606    344.14836    377.54292    249.24918    163.02888            0     499.8007            0            0            0    1289.6217    922.23097 
   12400        12400   -36.869739    624254.16   0.01704606    307.62527    383.75451    290.46058    186.59237            0    496.29634            0            0            0    1357.1038    824.35827 
   12500        12500    10.571017    624254.16   0.01704606    298.19105    336.27031    245.04888    267.06218            0    515.12843            0            0            0    1363.5098    799.07694 
   12600        12600   -185.57753    624254.16   0.01704606    284.84556    468.45847    263.88409    205.53512            0    454.51871            0            0            0    1392.3964    763.31438 
   12700        12700    278.84015    624254.16   0.01704606    314.43594    316.03692    237.13018    186.69144            0    565.31493            0            0            0    1305.1735    842.60914 
   12800        12800   -208.43633    624254.16   0.01704606    296.84579      441.319    257.50213    207.84306            0    444.45418            0            0            0    1351.1184    795.47199 
   12900        12900     206.5645    624254.16   0.01704606    287.82427    310.07535    239.71875    276.84853            0    544.43118            0            0            0    1371.0738    771.29657 
   13000        13000   -268.92964    597155.27  0.017819609    300.00371    439.64028    255.74232    201.27652            0    441.65744            0            0            0    1338.3166    803.93441 
   13100        13100   -232.71314    597155.27  0.017819609    328.38663    450.46757    259.00125    199.53301            0    459.19704            0            0            0    1368.1989    879.99349 
   13200        13200    -12.76113    597155.27  0.017819609     295.9013    348.11032    285.07126    257.05344            0    517.87336            0            0            0    1408.1084    792.94098 
   13300        13300   -54.788591    597155.27  0.017819609    322.11894    417.49991    260.78858    178.40593            0    455.63618            0            0            0    1312.3306    863.19767 
   13400        13400    172.76641    597155.27  0.017819609    308.26167     332.2034    275.13758    188.62097            0    529.97012            0            0            0    1325.9321    826.06368 
   13500        13500   -149.27253    597155.27  0.017819609    302.27923     369.3599    250.45886    242.25885            0    466.60766            0            0            0    1328.6853    810.03224 
   13600        13600   -16.535174    597155.27  0.017819609    286.98679    358.51608    254.38262    263.32646            0    487.95923            0            0            0    1364.1844    769.05234 
   13700        13700    95.459652    597155.27  0.017819609    329.51763    326.33775    242.36572    184.10134            0    494.35159            0            0            0    1247.1564    883.02429 
   13800        13800   -30.539049    597155.27  0.017819609    295.35092    399.13719    255.36606    205.48679            0    474.34022            0            0            0    1334.3302    791.46612 
   13900        13900    33.253207    597155.27  0.017819609    297.13148    346.63122    260.03564     216.6056            0    499.50725            0            0            0    1322.7797    796.23756 
   14000        14000   -136.68052    571232.74  0.018628263     293.2214    401.94366    273.02045    197.33203            0    458.59139            0            0            0    1330.8875    785.75952 
   14100        14100   -376.99041    571232.74  0.018628263    335.94604    519.36979    269.83347    181.05172            0    431.90985            0            0            0    1402.1648    900.25082 
   14200        14200    77.736547    571232.74  0.018628263    310.16194    328.42842       282.46    254.68236            0    545.29516            0            0            0    1410.8659    831.15592 
   14300        14300    -44.06268    571232.74  0.018628263    327.28372    454.10274      248.723    185.04747            0    441.81975            0            0            0    1329.6929    877.03797 
   14400        14400    161.95523    571232.74  0.018628263    327.15731    315.54111    246.44553    208.46451            0    526.53881            0            0            0      1296.99    876.69921 
   14500        14500   -192.70243    571232.74  0.018628263    309.35903    395.15809    228.94412    231.62379            0    471.30646            0            0            0    1327.0325    829.00433 
   14600        14600    44.252962    571232.74  0.018628263    293.05417    372.89583    252.08052    247.36853            0    486.51858            0            0            0    1358.8635    785.31141 
   14700        14700    94.914256    571232.74  0.018628263    321.78405     330.2442    225.41988    217.62698            0    502.30465            0            0            0    1275.5957    862.30025 
   14800        14800   -157.39797    571232.74  0.018628263    310.11774    385.45542    241.68642    214.50856            0    465.35467            0            0            0    1307.0051    831.03746 
   14900        14900    212.41891    571232.74  0.018628263    304.45112    318.92184    260.91751    209.30805            0    533.48986            0            0            0    1322.6373    815.85236 
   15000        15000   -303.78569    546435.51  0.019473613    294.82594    444.56076    287.41636    178.48046            0    438.68042            0            0            0     1349.138    790.05929 
   15100        15100   -323.89031    546435.51  0.019473613    329.23648    459.28627    283.53117    174.86446            0    450.11288            0            0            0    1367.7948    882.27088 
   15200        15200    2.4489977    546435.51  0.019473613    312.23621    347.83306    291.17796    211.99992            0    520.33014            0            0            0    1371.3411    836.71444 
   15300        15300    34.959497    546435.51  0.019473613     313.9517    384.72593    288.35633    188.62589            0    478.69515            0            0            0    1340.4033    841.31151 
   15400        15400    33.838711    546435.51  0.019473613    311.54556    392.26139    258.21194    186.52532            0    488.83189            0            0            0    1325.8305    834.86366 
   15500        15500    38.754569    546435.51  0.019473613    310.83843    352.47038    262.56201    188.91968            0    511.48062            0            0            0    1315.4327    832.96872 
   15600        15600   -227.73527    546435.51  0.019473613    304.90406    435.49272     247.1979    197.50641            0    444.97215            0            0            0    1325.1692     817.0661 
   15700        15700    285.49797    546435.51  0.019473613    306.66368    312.01209    225.05113    241.33155            0    536.03986            0            0            0    1314.4346    821.78146 
   15800        15800   -229.68123    546435.51  0.019473613    292.36527     450.3413    261.39402    209.09077            0    428.59839            0            0            0    1349.4245    783.46533 
   15900        15900    299.74203    546435.51  0.019473613    301.18188    313.85185    240.59405     216.9553            0    551.99519            0            0            0    1323.3964    807.09161 
   16000        16000   -453.80565    522714.73  0.020357325    297.29791    497.17082    247.27693     179.4335            0       406.99            0            0            0    1330.8713    796.68355 
   16100        16100   -212.41246    522714.73  0.020357325    328.91916    418.96199    249.05132    200.25927            0    447.34574            0            0            0    1315.6183    881.42054 
   16200        16200    -43.06264    522714.73  0.020357325    274.31208    380.13601    293.69599      249.435            0    507.41169            0            0            0    1430.6787     735.0873 
   16300        16300    12.013469    522714.73  0.020357325     311.0065    397.11441     259.0166    195.32842            0    463.62166            0            0            0    1315.0811    833.41912 
   16400        16400    110.87464    522714.73  0.020357325    297.58524    400.94432    255.76963    190.02437            0    494.80714            0            0            0    1341.5455    797.45353 
   16500        16500   -56.589235    522714.73  0.020357325    317.25607    350.93303    247.90371    200.72447            0    479.43063            0            0            0    1278.9918     850.1664 
   16600        16600   -70.480794    522714.73  0.020357325    291.87785    384.71843    263.46866    233.00114            0    458.42288            0            0            0    1339.6111    782.15916 
   16700        16700    92.517814    522714.73  0.020357325    301.87571    359.85347    248.31671    216.63662            0    482.11659            0            0            0    1306.9234    808.95091 
   16800        16800   -50.175776    522714.73  0.020357325    297.76929    371.61179    256.59171    223.80523            0    462.08667            0            0            0    1314.0954    797.94673 
   16900        16900    138.70862    522714.73  0.020357325       305.34    341.78498    250.88645    204.47029            0    500.80301            0            0            0    1297.9447    818.23432 
   17000        17000   -232.20406    500023.67   0.02128114     296.9542    414.81199    247.62569    215.01205            0    445.33902            0            0            0    1322.7888     795.7625 
   17100        17100   -459.43626    500023.67   0.02128114    330.91728    518.84726    252.43637    181.59996            0    414.52132            0            0            0    1367.4049    886.77499 
   17200        17200    164.53608    500023.67   0.02128114    287.37763    351.00416    298.85589    237.57946            0    549.77774            0            0            0    1437.2172    770.09971 
   17300        17300   -182.62022    500023.67   0.02128114    307.46688    447.31178    283.74127    191.88805            0     432.3026            0            0            0    1355.2437    823.93384 
   17400        17400    246.10614    500023.67   0.02128114    285.13106    377.05931    277.19335    212.28182            0    525.77746            0            0            0    1392.3119    764.07947 
   17500        17500   -155.40977    500023.67   0.02128114    308.86646      385.643    274.74309    191.49622            0    462.80988            0            0            0    1314.6922    827.68436 
   17600        17600   -33.769418    500023.67   0.02128114    291.49053    376.16108    273.26449    224.66814            0     479.2766            0            0            0    1353.3703    781.12123 
   17700        17700     98.94506    500023.67   0.02128114    309.17537    367.99281    234.55763    215.79849            0    479.95011            0            0            0    1298.2991    828.51214 
   17800        17800   -51.159321    500023.67   0.02128114    308.05012    384.64225    261.98311    200.12537            0    450.18061            0            0            0    1296.9313    825.49676 
   17900        17900    140.10753    500023.67   0.02128114    302.03662     369.5029    251.75423    177.24274            0    513.29244            0            0            0    1311.7923     809.3821 
   18000        18000   -357.36751    478317.62  0.022246878    296.89991    445.51303    256.61998    200.76488            0    417.08003            0            0            0    1319.9779    795.61701 
   18100        18100   -327.79687    478317.62  0.022246878    339.87493    496.65977    260.05274    190.84168            0    426.73073            0            0            0    1374.2849    910.77925 
   18200        18200   -18.136514    478317.62  0.022246878    311.47235    359.53712    289.28012    237.56563            0    509.07528            0            0            0    1395.4582    834.66747 
   18300        18300   -40.325969    478317.62  0.022246878    315.31322    428.70651    273.12798    206.39723            0    438.24914            0            0            0    1346.4809    844.96004 
   18400        18400    168.03462    478317.62  0.022246878    299.87826    352.23046     270.3549    250.47343            0    481.20743            0            0            0    1354.2662    803.59824 
   18500        18500   -110.38713    478317.62  0.022246878    308.80179    355.08705    271.28656    220.71918            0    460.47865            0            0            0    1307.5714    827.51106 
   18600        18600   -112.25184    478317.62  0.022246878    311.85796    381.47775    252.78219    208.78747            0    441.01942            0            0            0    1284.0668    835.70083 
   18700        18700    228.69902    478317.62  0.022246878    299.96729    344.84645     258.6364    204.37374            0    497.79465            0            0            0    1305.6512     803.8368 
   18800        18800   -235.36685    478317.62  0.022246878    286.09211    439.83536    269.43364    210.91961            0    416.37364            0            0            0    1336.5622    766.65482 
   18900        18900    304.49875    478317.62  0.022246878    300.44695    337.99985    252.06126      188.464            0     519.6689            0            0            0     1298.194     805.1222 
   19000        19000   -414.50307    457553.84   0.02325644     289.3631    469.52448    250.31783    207.52177            0    398.69893            0            0            0     1326.063    775.42025 
   19100        19100   -329.84556    457553.84   0.02325644    325.66902    456.46925    254.93935    201.10903            0    424.14702            0            0            0    1336.6646    872.71097 
   19200        19200    37.219277    457553.84   0.02325644    304.78744    344.66964    295.27619    213.37322            0    496.07419            0            0            0    1349.3932    816.75362 
   19300        19300    24.210395    457553.84   0.02325644    306.24002    429.21647    277.67903     174.2918            0    440.98918            0            0            0    1322.1765    820.64617 
   19400        19400    34.596154    457553.84   0.02325644    301.42837    370.58417     254.8709    223.84395            0    464.96339            0            0            0    1314.2624    807.75214 
   19500        19500    -39.30944    457553.84   0.02325644     310.9555    347.53021    261.77887    206.84914            0     462.6246            0            0            0    1278.7828    833.28246 
   19600        19600   -46.379007    457553.84   0.02325644    299.65264    369.12283     249.1655    243.89157            0    442.20757            0            0            0    1304.3875    802.99364 
   19700        19700    128.31558    457553.84   0.02325644    311.26955    335.64571    246.91632    206.15206            0    483.31188            0            0            0     1272.026    834.12404 
   19800        19800   -175.05075    457553.84   0.02325644    292.12305    400.51595     247.7207    237.76729            0    437.20466            0            0            0    1323.2086    782.81622 
   19900        19900    200.59574    457553.84   0.02325644    291.13933    349.79044     271.1471    221.12727            0    487.66281            0            0            0    1329.7276    780.18011 
   20000        20000   -202.05261    437691.42  0.024311817    308.33483    398.81508    244.23107    204.17091            0    437.09534            0            0            0    1284.3124    826.25972 
   20100        20100   -582.35647    437691.42  0.024311817    338.26775    500.82884    273.60715    176.15014            0    395.84922            0            0            0    1346.4353     906.4724 
   20200        20200    136.18069    437691.42  0.024311817    303.37529    333.59222    294.20813    252.07403            0    506.21417            0            0            0    1386.0886    812.96939 
   20300        20300   -85.930767    437691.42  0.024311817    314.12566    450.05027    267.76785    190.16905            0    416.52704            0            0            0    1324.5142    841.77767 
   20400        20400    258.12322    437691.42  0.024311817    305.79612    326.62948    263.30097    229.34517            0    496.76385            0            0            0    1316.0395    819.45662 
   20500        20500    -265.5297    437691.42  0.024311817    305.01693    394.98638    262.50062    217.64462            0    425.14624            0            0            0    1300.2779    817.36859 
   20600        20600    26.361005    437691.42  0.024311817     285.2718     393.9358    244.03143    248.85732            0    455.01226            0            0            0    1341.8368    764.45659 
   20700        20700     91.89263    437691.42  0.024311817    336.39666    322.16329    229.25497    193.59979            0     451.0574            0            0            0    1196.0755    901.45834 
   20800        20800   -68.463866    437691.42  0.024311817    289.54205    375.57777    267.20508    235.23289            0    438.28617            0            0            0    1316.3019    775.89979 
   20900        20900    117.06292    437691.42  0.024311817    309.00806    326.11701    261.17311    210.79803            0    461.62046            0            0            0    1259.7086     828.0638 
   21000        21000   -232.86787    418691.22  0.025415087    297.98169    391.74999    260.60592    213.32924            0    418.69117            0            0            0    1284.3763     798.5159 
   21100        21100   -534.21355    418691.22  0.025415087    340.92991    504.97062    281.53567    177.00403            0     389.0607            0            0            0     1352.571    913.60632 
   21200        21200    76.406849    418691.22  0.025415087    294.40771    344.60939    261.66405     305.6347            0    507.77279            0            0            0    1419.6809    788.93855 
   21300        21300   -122.94535    418691.22  0.025415087    328.11253    431.92493    257.10607    189.50828            0    417.35717            0            0            0    1295.8965    879.25897 
   21400        21400    274.43322    418691.22  0.025415087    303.14284    349.85599    254.99274    225.03376            0    501.03228            0            0            0    1330.9148    812.34649 
   21500        21500   -158.71444    418691.22  0.025415087     295.4929      403.486    272.91851    207.15114            0    448.32319            0            0            0    1331.8788    791.84658 
   21600        21600   -70.978318    418691.22  0.025415087    282.86165    370.24505    263.42342    267.25478            0    449.96579            0            0            0     1350.889    757.99801 
   21700        21700    187.84428    418691.22  0.025415087    316.63618    327.95246    253.45632    196.86389            0    475.54494            0            0            0    1253.8176    848.50526 
   21800        21800   -157.22475    418691.22  0.025415087    301.86354    393.53848    247.81266    221.53603            0    429.06529            0            0            0    1291.9525    808.91828 
   21900        21900    205.04972    418691.22  0.025415087    286.94801    344.40715    268.90298    228.77788            0    489.23796            0            0            0     1331.326    768.94842 
   22000        22000   -340.87133    400515.82  0.026568423    288.93282    450.48751    244.36443    227.31339            0    404.43398            0            0            0    1326.5993    774.26722 
   22100        22100   -411.14842    400515.82  0.026568423    347.64203    442.81897    247.91887    203.94584            0    411.87984            0            0            0    1306.5635    931.59313 
   22200        22200   -98.966106    400515.82  0.026568423    311.65635    346.84726     254.3692    284.59384            0     466.4998            0            0            0    1352.3101    835.16056 
   22300        22300    62.206144    400515.82  0.026568423    315.71971    427.78694    243.39488    219.27125            0    421.18941            0            0            0    1311.6425    846.04934 
   22400        22400    113.65621    400515.82  0.026568423    320.17024    340.62824    270.38116    191.67909            0    464.69459            0            0            0    1267.3831    857.97563 
   22500        22500   -47.015192    400515.82  0.026568423    287.18962    374.95033    264.20833    240.99865            0    461.57698            0            0            0    1341.7343    769.59588 
   22600        22600   -191.20983    400515.82  0.026568423    290.22318    405.19364    257.91217    248.42605            0    412.38632            0            0            0    1323.9182    777.72507 
   22700        22700    244.60866    400515.82  0.026568423    303.69003    325.77588    244.42312    228.93099            0    481.41348            0            0            0    1280.5435    813.81282 
   22800        22800   -195.15318    400515.82  0.026568423    310.59369    408.71976    244.00211    203.46922            0    403.16479            0            0            0    1259.3559    832.31289 
   22900        22900    250.92663    400515.82  0.026568423    283.54882    329.29328    275.11537     240.1312            0    479.47271            0            0            0    1324.0126    759.83945 
   23000        23000   -327.27068    383129.42  0.027774097    305.67621    403.96987    248.10432    212.74762            0    397.37549            0            0            0    1262.1973    819.13529 
   23100        23100   -448.61042    383129.42  0.027774097    306.38149    471.49799    312.33253    205.41374            0    402.49303            0            0            0    1391.7373    821.02525 
   23200        23200    121.23849    383129.42  0.027774097    302.52455    306.89673    314.19387    241.88946            0    492.55909            0            0            0    1355.5391    810.68962 
   23300        23300   -202.80779    383129.42  0.027774097    304.92987    466.79847     242.6207    214.78052            0    400.32492            0            0            0    1324.5246    817.13528 
   23400        23400    283.13468    383129.42  0.027774097    313.38797    334.80822    266.45543     198.4438            0    482.13799            0            0            0    1281.8454    839.80087 
   23500        23500   -173.07074    383129.42  0.027774097    293.17609    401.95045    273.58684    211.25033            0     438.6609            0            0            0    1325.4485    785.63811 
   23600        23600   -47.338192    383129.42  0.027774097    292.37772    399.61007    246.33431    233.24726            0    443.40402            0            0            0    1322.5957    783.49869 
   23700        23700    151.47553    383129.42  0.027774097    315.88781    334.08364    238.95839    223.48823            0    457.86738            0            0            0    1254.3976     846.4998 
   23800        23800   -156.51491    383129.42  0.027774097    305.40395    399.77428    247.98461    220.36398            0    412.86397            0            0            0    1280.9868    818.40569 
   23900        23900    221.31417    383129.42  0.027774097    297.76906    347.56668    254.45015    214.21545            0    478.65806            0            0            0    1294.8903    797.94612 
   24000        24000   -355.21393    366497.76  0.029034485    286.75913     431.9261    269.04664     222.2921            0     392.5835            0            0            0    1315.8483    768.44228 
   24100        24100   -521.80337    366497.76  0.029034485    310.02904    497.38679    288.36367    209.20998            0    385.69334            0            0            0    1380.6538    830.79977 
   24200        24200     24.80296    366497.76  0.029034485    307.56293    349.04603    272.56612    249.60538            0      467.545            0            0            0    1338.7625    824.19123 
   24300        24300   -45.063004    366497.76  0.029034485    335.86499    401.25753    253.99166    175.87017            0     403.9542            0            0            0    1235.0736    900.03361 
   24400        24400    170.77664    366497.76  0.029034485    331.89488    340.66164    244.72837    186.51524            0    447.20556            0            0            0    1219.1108    889.39473 
   24500        24500   -71.774855    366497.76  0.029034485    300.93466    374.69281    246.43945    235.04729            0    429.22986            0            0            0    1285.4094    806.42914 
   24600        24600   -293.98404    366497.76  0.029034485     297.2113    412.97463    251.44033    233.10377            0    389.85364            0            0            0    1287.3724    796.45147 
   24700        24700    431.88333    366497.76  0.029034485    299.55221    322.64641    252.66284    212.02667            0     489.9031            0            0            0     1277.239     802.7245 
   24800        24800   -295.63491    366497.76  0.029034485    311.98491    425.84692    235.76256    200.60231            0    378.26135            0            0            0    1240.4732    836.04101 
   24900        24900    273.25045    366497.76  0.029034485    290.40493    327.46419     236.3776      262.554            0    472.29189            0            0            0    1298.6877    778.21209 
   25000        25000   -542.64385    350588.08  0.030352069    309.41669     461.9498    235.03711    188.98086            0    364.68705            0            0            0    1250.6548    829.15884 
   25100        25100   -267.55827    350588.08  0.030352069    315.80933    419.76611    275.03678    181.80241            0    404.48469            0            0            0      1281.09    846.28949 
   25200        25200   -59.280356    350588.08  0.030352069     299.4817    350.21463    254.86914    245.81211            0     445.5662            0            0            0    1296.4621    802.53557 
   25300        25300    -114.6272    350588.08  0.030352069    291.29286    389.61827    255.12146    261.70432            0    398.77909            0            0            0    1305.2231    780.59152 
   25400        25400    94.502247    350588.08  0.030352069    315.92083    355.09176    238.41302    206.03702            0    430.65131            0            0            0    1230.1931    846.58828 
   25500        25500    136.32186    350588.08  0.030352069    303.15119    354.00048    276.94185    186.73832            0    445.67255            0            0            0    1263.3532    812.36886 
   25600        25600   -127.17617    350588.08  0.030352069    304.41226    372.13145    260.20292    210.41224            0    414.01945            0            0            0    1256.7661    815.74823 
   25700        25700     39.08436    350588.08  0.030352069     288.6694    356.13924    259.49392    240.47856            0    442.89137            0            0            0    1299.0031    773.56131 
   25800        25800   -144.26771    350588.08  0.030352069    289.07057    394.92422    236.26758    274.34008            0    395.83533            0            0            0    1301.3672    774.63634 
   25900        25900    353.34624    350588.08  0.030352069    297.45894    322.90714    255.36646    230.06726            0    475.88868            0            0            0    1284.2295    797.11508 
   26000        26000   -402.96981    335369.04  0.031729445     300.0712    420.88044    249.18493    216.11354            0    392.42675            0            0            0    1278.6056    804.11526 
   26100        26100   -677.64712    335369.04  0.031729445    332.21849    493.97895    260.22017    227.00421            0    360.55052            0            0            0    1341.7539    890.26192 
   26200        26200    186.35169    335369.04  0.031729445    281.64662    362.09904    299.87583    279.84481            0    482.12213            0            0            0    1423.9418    754.74204 
   26300        26300   -208.96599    335369.04  0.031729445    322.39904    428.49236    255.83857    224.26365            0     367.2651            0            0            0    1275.8597    863.94825 
   26400        26400    297.09936    335369.04  0.031729445    315.32792    342.84962    261.12025    196.67992            0    462.96988            0            0            0    1263.6197    844.99943 
   26500        26500   -180.31531    335369.04  0.031729445    320.80961    360.22704    240.76111    220.12096            0    407.38646            0            0            0    1228.4956    859.68898 
   26600        26600   -65.680682    335369.04  0.031729445    297.13765    375.85874    253.15905    239.93102            0    406.38699            0            0            0    1275.3358     796.2541 
   26700        26700    174.06329    335369.04  0.031729445    299.52935    334.08798    233.02984    264.84663            0    426.10272            0            0            0    1258.0672    802.66325 
   26800        26800   -168.49429    335369.04  0.031729445    317.61996    357.02137      260.615    201.74952            0    384.57888            0            0            0    1203.9648    851.14152 
[...]
   81200        81200    581.25418     29204.06   0.36436967    303.18258    364.44554    263.12081    211.71021            0    126.29658            0            0            0    965.57314    812.45298 
   81300        81300   -1030.3681     29204.06   0.36436967    318.97372    384.69394    254.26119    195.59882            0    53.364431            0            0            0    887.91838    854.76926 
   81400        81400    2354.4303     29204.06   0.36436967    311.67491    366.62011    248.21269    177.07391            0    91.266448            0            0            0    883.17316    835.21028 
   81500        81500    937.30205     29204.06   0.36436967     298.2041    368.15143    260.66051    181.35947            0    93.826569            0            0            0    903.99799     799.1119 
   81600        81600   -4236.7962     29204.06   0.36436967    311.22133    388.82978    245.37612    174.36864            0    48.673109            0            0            0    857.24765     833.9948 
   81700        81700    4093.6543     29204.06   0.36436967    296.13027    332.78336    248.38069    183.87939            0    129.49542            0            0            0    894.53886    793.55456 
   81800        81800   -3908.8549     29204.06   0.36436967    285.38097    447.76191    266.40772    175.61104            0    35.434854            0            0            0    925.21553    764.74915 
   81900        81900     5091.019     29204.06   0.36436967     295.9331    313.43504    246.56177    190.15523            0    146.55462            0            0            0    896.70666     793.0262 
   82000        82000   -7182.5941     27936.31   0.38090476    297.64255    452.73934    231.11232     197.6114            0    14.022651            0            0            0     895.4857    797.60711 
   82100        82100   -7314.1231     27936.31   0.38090476    323.04085    467.19501    260.98194    199.26341            0    13.590469            0            0            0    941.03083    865.66815 
   82200        82200    2099.1138     27936.31   0.38090476    310.96841    323.21072    277.93206    196.16192            0    129.52176            0            0            0    926.82646    833.31706 
   82300        82300    -1592.945     27936.31   0.38090476    313.18613    426.89415    265.43234    173.61721            0    26.345148            0            0            0    892.28884    839.25997 
   82400        82400    2405.2061     27936.31   0.38090476    313.21028    344.71479    260.04501    169.80233            0    89.145565            0            0            0    863.70769     839.3247 
   82500        82500   -1180.3126     27936.31   0.38090476    317.44203     364.6011      230.679     179.3107            0    65.168648            0            0            0    839.75945    850.66471 
   82600        82600    -2729.876     27936.31   0.38090476    307.28175    383.70594    240.22922    192.89131            0    42.964016            0            0            0    859.79049    823.43773 
   82700        82700    3870.9368     27936.31   0.38090476    311.69492    319.76242    221.80511    199.22148            0    100.82827            0            0            0    841.61728    835.26391 
   82800        82800   -3925.6598     27936.31   0.38090476    286.33579    440.67996    261.79237    181.82618            0    25.265001            0            0            0    909.56351    767.30783 
   82900        82900    3977.4935     27936.31   0.38090476     301.9149    312.60259    233.08857    199.76829            0    119.68264            0            0            0    865.14209    809.05593 
   83000        83000   -6328.4398    26723.594   0.39819021    296.18703    461.48123    238.55515     173.7981            0    13.086511            0            0            0    886.92099    793.70668 
   83100        83100   -7732.0805    26723.594   0.39819021     333.2852    475.90305    283.27622     185.6895            0   -2.7833104            0            0            0    942.08546    893.12043 
   83200        83200    307.52528    26723.594   0.39819021    308.59517    373.80135    267.44432    197.87444            0    113.79383            0            0            0    952.91394    826.95736 
   83300        83300    -2239.375    26723.594   0.39819021    317.53763    438.14653     263.7095    165.36527            0    25.992101            0            0            0     893.2134    850.92089 
   83400        83400    4483.5861    26723.594   0.39819021    309.96231    359.12593    256.27173    188.24128            0    81.489026            0            0            0    885.12797    830.62096 
   83500        83500   -1648.3403    26723.594   0.39819021    316.51165    377.44127    245.24963    175.47909            0    53.255344            0            0            0    851.42533    848.17154 
   83600        83600   -3175.4259    26723.594   0.39819021    312.19271    385.86377    249.43196    165.45239            0    47.297645            0            0            0    848.04577    836.59786 
   83700        83700    4242.7647    26723.594   0.39819021    313.49754    324.71345    244.24315    177.23907            0     90.77199            0            0            0    836.96766    840.09448 
   83800        83800   -3187.2583    26723.594   0.39819021    297.36979    433.51844    258.20792    174.06402            0    9.8397595            0            0            0    875.63014    796.87617 
   83900        83900    4960.5835    26723.594   0.39819021    291.56313    322.53422    253.76562    183.19192            0    124.07051            0            0            0    883.56228    781.31579 
   84000        84000   -8979.2589    25563.522   0.41626007     288.9981    501.34969    239.65089    169.17738            0   -21.275691            0            0            0    888.90227    774.44215 
   84100        84100   -2665.8059    25563.522   0.41626007    319.40122    443.89334    228.80424    183.29743            0    27.587401            0            0            0    883.58241    855.91486 
   84200        84200   -2467.4809    25563.522   0.41626007    300.26593     379.2296    270.39321    177.71253            0     72.26499            0            0            0    899.60033    804.63709 
   84300        84300   -270.66393    25563.522   0.41626007    302.31371    411.72449    256.03695    166.26849            0      38.0743            0            0            0    872.10423    810.12464 
   84400        84400    1077.7186    25563.522   0.41626007    292.29893     413.2973    256.73151    161.88776            0     54.30901            0            0            0    886.22558    783.28755 
   84500        84500    1288.9816    25563.522   0.41626007    308.62273    362.47874     236.5661    163.37308            0     78.11996            0            0            0    840.53789    827.03121 
   84600        84600   -5622.4702    25563.522   0.41626007    301.13012    442.27866    243.09625      167.966            0    7.6598032            0            0            0     861.0007     806.9529 
   84700        84700    4523.4682    25563.522   0.41626007    302.40141    348.05203    239.40857    170.99631            0    94.416194            0            0            0     852.8731    810.35966 
   84800        84800   -3837.2353    25563.522   0.41626007    295.88999     417.2356    266.55231    173.74523            0    11.643882            0            0            0    869.17701    792.91067 
   84900        84900    4693.8085    25563.522   0.41626007    296.47781    359.08146     238.8612    169.13644            0    101.17187            0            0            0    868.25097    794.48587 
   85000        85000   -5433.2387    24453.809   0.43514994     293.7261    461.20022     242.5519    167.37072            0    4.8987706            0            0            0     876.0216    787.11201 
   85100        85100   -10324.549    24453.809   0.43514994    328.32889    527.70368    272.52168    176.28995            0   -29.336246            0            0            0    947.17906    879.83875 
   85200        85200    4265.8181    24453.809   0.43514994    309.74417     345.6762    290.97156    191.69045            0    112.43752            0            0            0    940.77573     830.0364 
   85300        85300   -3625.7818    24453.809   0.43514994    320.24123    450.34876    275.60317    161.83688            0    -13.94662            0            0            0    873.84219    858.16587 
   85400        85400    4162.4457    24453.809   0.43514994    311.00095    363.33411    257.36776    175.15169            0    67.948286            0            0            0    863.80185    833.40425 
   85500        85500   -3641.4972    24453.809   0.43514994    310.23805    386.46973     260.5248    175.64125            0      21.0079            0            0            0    843.64368    831.35987 
   85600        85600   -1710.5466    24453.809   0.43514994    305.26293    405.20569     255.4236    157.03925            0    25.499251            0            0            0    843.16779    818.02779 
   85700        85700    4497.4422    24453.809   0.43514994    312.78526    324.44576      254.611    165.94662            0    66.453929            0            0            0    811.45731    838.18576 
   85800        85800   -6572.6134    24453.809   0.43514994    301.00305    408.64179    275.74339    164.75577            0   -6.1876829            0            0            0    842.95326    806.61238 
   85900        85900    5613.6219    24453.809   0.43514994     292.8315    347.60296    243.95879    176.86919            0    101.79668            0            0            0    870.22763    784.71471 
   86000        86000   -6445.4125    23392.269   0.45489704    289.79759    469.07567    256.52645    176.53579            0   -23.985311            0            0            0    878.15259    776.58459 
   86100        86100   -6288.0337    23392.269   0.45489704    334.26268    456.74584    245.57318    199.37402            0    -4.835202            0            0            0    896.85784    895.73983 
   86200        86200   -733.55609    23392.269   0.45489704    305.61711    369.92597    283.91158    198.05395            0    73.208965            0            0            0    925.10046    818.97691 
   86300        86300   -835.25628    23392.269   0.45489704    321.78946    410.64244    260.46362    177.13091            0   -5.5615207            0            0            0    842.67545    862.31473 
   86400        86400    5145.5959    23392.269   0.45489704    308.63908    361.12531    258.35684    171.79622            0    62.714368            0            0            0    853.99273    827.07502 
   86500        86500   -3675.9501    23392.269   0.45489704     317.0688     403.4323    227.35118    164.06472            0    24.215036            0            0            0    819.06324    849.66456 
   86600        86600   -2056.8853    23392.269   0.45489704    293.64458    408.64514    255.36291    179.90291            0    30.860895            0            0            0    874.77186    786.89355 
   86700        86700    4011.4468    23392.269   0.45489704    318.83118    335.06438    240.07568    173.36688            0    53.371921            0            0            0    801.87886    854.38728 
   86800        86800   -3255.4412    23392.269   0.45489704    299.00237    401.44904    267.66152    184.26403            0   -2.1193518            0            0            0    851.25524    801.25107 
   86900        86900     3624.425    23392.269   0.45489704    288.41996    368.68198    247.51983    186.97922            0    72.750283            0            0            0    875.93132    772.89288 
   87000        87000   -6789.6516    22376.809   0.47554025    292.81343    432.56021    266.58655    184.64149            0    -20.66781            0            0            0    863.12044    784.66629 
   87100        87100   -7924.8837    22376.809   0.47554025    331.76278      503.839    280.93247    178.26917            0   -25.334243            0            0            0    937.70639    889.04073 
   87200        87200    839.47777    22376.809   0.47554025    326.25026    344.34834    300.02176    177.26553            0    70.461166            0            0            0     892.0968    874.26857 
   87300        87300   -2107.6813    22376.809   0.47554025    323.76958    425.35469     272.6166    176.40172            0   -19.464074            0            0            0    854.90893    867.62095 
   87400        87400    3378.4322    22376.809   0.47554025    309.53897    387.24629    255.96859    183.22187            0     30.86901            0            0            0    857.30576     829.4865 
   87500        87500    454.84305    22376.809   0.47554025    323.58211    331.95538    254.41794    179.43034            0    28.034592            0            0            0    793.83826    867.11859 
   87600        87600   -5020.3679    22376.809   0.47554025    292.83986    453.04945    239.77719    174.95281            0  -0.58397223            0            0            0    867.19548    784.73709 
   87700        87700    4923.4925    22376.809   0.47554025    304.76312    323.93322    248.78917    193.01877            0    58.129809            0            0            0    823.87097    816.68843 
   87800        87800    -3352.979    22376.809   0.47554025    289.34778    444.00954     261.9712    178.76264            0   -18.615374            0            0            0    866.12801    775.37921 
   87900        87900    5566.6281    22376.809   0.47554025    292.74878    330.18451    252.81405    198.26208            0    72.212525            0            0            0    853.47318    784.49303 
   88000        88000   -8666.8106    21405.431   0.49712026    300.07165    456.39629    238.17491    172.68643            0   -31.827635            0            0            0    835.42999    804.11646 
   88100        88100   -9402.6281    21405.431   0.49712026    319.67515    512.49399     287.5052    172.98865            0   -45.035535            0            0            0     927.9523    856.64893 
   88200        88200    3461.5792    21405.431   0.49712026    308.43261    346.40911    285.83872    185.36013            0     83.70039            0            0            0    901.30835    826.52174 
   88300        88300   -3316.7079    21405.431   0.49712026    298.70501    468.20693    267.09758    179.36304            0   -18.636026            0            0            0    896.03153    800.45422 
   88400        88400    3229.6805    21405.431   0.49712026     311.8765    352.01509    252.62311    184.91549            0    42.869352            0            0            0    832.42303    835.75051 
   88500        88500   -1181.0248    21405.431   0.49712026    314.61445    371.23324    239.74964    172.05099            0    28.290148            0            0            0    811.32402    843.08752 
   88600        88600   -4004.3167    21405.431   0.49712026    305.53214     403.9587    251.88351    173.10492            0   -4.3772858            0            0            0    824.56985     818.7492 
   88700        88700    6513.0902    21405.431   0.49712026    296.89429    320.96278    265.07424    183.47459            0    77.516384            0            0            0      847.028    795.60196 
   88800        88800   -8185.5595    21405.431   0.49712026    295.01529    433.64757    272.65888    173.16476            0   -26.557837            0            0            0    852.91337    790.56669 
   88900        88900    9175.6659    21405.431   0.49712026    288.01212    333.27822    258.02113    180.34154            0    102.93394            0            0            0    874.57483    771.79996 
   89000        89000   -10556.104    20476.221   0.51967956    303.45329    488.23935    225.74891    168.60318            0   -48.908653            0            0            0    833.68279    813.17842 
   89100        89100   -7804.7781    20476.221   0.51967956    307.17519     469.1078    281.05997    189.74266            0   -7.8272183            0            0            0    932.08322    823.15218 
   89200        89200    565.00639    20476.221   0.51967956    316.31353    352.34302    260.61912    197.58299            0    49.276089            0            0            0    859.82121    847.64063 
   89300        89300    57.999338    20476.221   0.51967956    312.81378    405.21632    263.50337    175.09862            0   -3.8792343            0            0            0    839.93908    838.26217 
   89400        89400    1347.8711    20476.221   0.51967956    318.98946    378.29805    236.44062    169.60906            0     16.66886            0            0            0     801.0166    854.81143 
   89500        89500    144.05853    20476.221   0.51967956    308.27885    360.96874    235.08096    183.82426            0    36.513995            0            0            0    816.38795    826.10971 
   89600        89600   -5379.4289    20476.221   0.51967956     286.5307    434.02658     271.3916     177.7361            0   -8.6816495            0            0            0    874.47263    767.83015 
   89700        89700    6393.2728    20476.221   0.51967956    309.70132    325.87408    249.15575    166.94977            0    67.073962            0            0            0    809.05355    829.92155 
   89800        89800   -6606.2431    20476.221   0.51967956    291.61829     437.3945    277.53596    166.33577            0   -24.569223            0            0            0    856.69701    781.46361 
   89900        89900    6120.9613    20476.221   0.51967956    291.16976     343.6271    253.83782    188.61414            0    69.046045            0            0            0     855.1251    780.26164 
   90000        90000   -7898.8652    19587.348   0.54326261    293.86396    430.94592    280.14226    173.48181            0   -40.005389            0            0            0    844.56461    787.48144 
   90100        90100   -10642.991    19587.348   0.54326261    328.32244      525.015    296.94653    163.68377            0   -54.603927            0            0            0    931.04137    879.82148 
   90200        90200    4472.7563    19587.348   0.54326261    319.23929    357.78445    279.25697    188.75713            0    66.082916            0            0            0    891.88146    855.48093 
   90300        90300   -6378.0722    19587.348   0.54326261    315.17744    468.68776     273.5699    172.49974            0   -59.679302            0            0            0    855.07809    844.59619 
   90400        90400    8353.6442    19587.348   0.54326261    322.88286    342.49809    238.35985    166.41162            0    46.420325            0            0            0    793.68988    865.24478 
   90500        90500   -4593.7224    19587.348   0.54326261    318.19456    408.50982    241.56243    160.56301            0   -28.867104            0            0            0    781.76816     852.6813 
   90600        90600   -825.63515    19587.348   0.54326261    296.94219    377.80003    258.71918    184.77592            0    3.6326755            0            0            0    824.92781     795.7303 
   90700        90700    2090.9994    19587.348   0.54326261    308.24074    343.07188    247.39183    182.08508            0    11.779416            0            0            0     784.3282    826.00758 
   90800        90800   -3092.2446    19587.348   0.54326261    294.23524    394.54218    269.74751    180.87871            0   -23.404554            0            0            0    821.76385    788.47635 
   90900        90900    4901.1826    19587.348   0.54326261    300.60997    342.89789    244.0150