LAMMPS (7 Jan 2022)
OMP_NUM_THREADS environment is not set. Defaulting to 1 thread. (src/comm.cpp:98)
  using 1 OpenMP thread(s) per MPI task
#-------------------------------------------------------------------------------
# LAMMPS Stage 1:
# Created using Scymol 2023.
#-------------------------------------------------------------------------------
echo                both
#-------------------------------------------------------------------------------
# Substage 1.1: Initialization
# Initialize LAMMPS run.
#-------------------------------------------------------------------------------
units               real
boundary            p p p
atom_style          full
pair_style          lj/cut 12.0
pair_modify         mix arithmetic
bond_style          harmonic
angle_style         harmonic
dihedral_style      fourier
improper_style      cvff
special_bonds       amber
read_data           structure.data
Reading data file ...
  orthogonal box = (0 0 0) to (21.989593 21.989593 2198.9593)
  1 by 1 by 1 MPI processor grid
  reading atoms ...
  900 atoms
  reading velocities ...
  900 velocities
  scanning bonds ...
  2 = max bonds/atom
  scanning angles ...
  3 = max angles/atom
  scanning dihedrals ...
  8 = max dihedrals/atom
  reading bonds ...
  950 bonds
  reading angles ...
  1500 angles
  reading dihedrals ...
  2200 dihedrals
Finding 1-2 1-3 1-4 neighbors ...
  special bond factors lj:    0        0        0.5     
  special bond factors coul:  0        0        0.8333333333333334
     3 = max # of 1-2 neighbors
     6 = max # of 1-3 neighbors
    14 = max # of 1-4 neighbors
    15 = max # of special neighbors
  special bonds CPU = 0.001 seconds
  read_data CPU = 0.013 seconds

#-------------------------------------------------------------------------------
# Declaring variables:
#-------------------------------------------------------------------------------
variable            R equal 0.00198722
variable            sysvol equal vol
variable            sysmass equal mass(all)/6.0221367e+023
variable            sysdensity equal v_sysmass/v_sysvol/1.0e-24
variable            coulomb equal ecoul+elong
variable            etotal equal etotal
variable            pe equal pe
variable            ke equal ke
variable            evdwl equal evdwl
variable            epair equal epair
variable            ebond equal ebond
variable            eangle equal eangle
variable            edihed equal edihed
variable            eimp equal eimp
variable            lx equal lx
variable            ly equal ly
variable            lz equal lz
variable            xhi equal xhi
variable            yhi equal yhi
variable            zhi equal zhi
variable            xlo equal xlo
variable            ylo equal ylo
variable            zlo equal zlo
variable            Nthermo equal 0
variable            cella equal lx
variable            cellb equal sqrt(ly*ly+xy*xy)
variable            cellc equal sqrt(lz*lz+xz*xz+yz*yz)
variable            cellalpha equal acos((xy*xz+ly*yz)/(v_cellb*v_cellc))
variable            cellbeta equal acos(xz/v_cellc)
variable            cellgamma equal acos(xy/v_cellb)
variable            p equal press
variable            pxx equal pxx
variable            pyy equal pyy
variable            pzz equal pzz
variable            pyz equal pyz
variable            pxz equal pxz
variable            pxy equal pxy
variable            sxx equal -pxx
variable            syy equal -pyy
variable            szz equal -pzz
variable            syz equal -pyz
variable            sxz equal -pxz
variable            sxy equal -pxy
variable            fmax equal fmax
variable            fnorm equal fnorm
variable            time equal step*dt+0.000001
thermo_style        custom step v_time press vol v_sysdensity temp ebond eangle edihed eimp evdwl ecoul etail elong pe ke
thermo_modify       flush yes
reset_timestep      0
#-------------------------------------------------------------------------------
# Substage 1.2: Minimization
# Initialize LAMMPS run.
#-------------------------------------------------------------------------------
min_style           cg
min_modify          dmax 0.05
thermo_style        custom step fmax fnorm press vol v_sysdensity v_sxx v_syy v_szz v_syz v_sxz v_sxy pe v_cella v_cellb v_cellc v_cellalpha v_cellbeta v_cellgamma
WARNING: New thermo_style command, previous thermo_modify settings will be lost (src/output.cpp:888)
dump                minrun all custom 1000 1.2_minimization.lammpstrj id mol type q xs ys zs
thermo              100
minimize            0.0 0.0 1000 10000
WARNING: Using 'neigh_modify every 1 delay 0 check yes' setting during minimization (src/min.cpp:187)
  generated 1 of 1 mixed pair_coeff terms from arithmetic mixing rule
Neighbor list info ...
  update every 1 steps, delay 0 steps, check yes
  max neighbors/atom: 2000, page size: 100000
  master list distance cutoff = 14
  ghost atom cutoff = 14
  binsize = 7, bins = 4 4 315
  1 neighbor lists, perpetual/occasional/extra = 1 0 0
  (1) pair lj/cut, perpetual
      attributes: half, newton on
      pair build: half/bin/newton
      stencil: half/bin/3d
      bin: standard
Per MPI rank memory allocation (min/avg/max) = 13.25 | 13.25 | 13.25 Mbytes
Step Fmax Fnorm Press Volume v_sysdensity v_sxx v_syy v_szz v_syz v_sxz v_sxy PotEng v_cella v_cellb v_cellc v_cellalpha v_cellbeta v_cellgamma 
       0    55.289056    1098.5519   -948.29578    1063289.6  0.010007691    933.48374    969.75305    941.65054   -11.918642   -55.339533     2.407708    1450.8979    21.989593    21.989593    2198.9593    1.5707963    1.5707963    1.5707963 
     100 5.8794182e-10 2.0633876e-09 8.7653425e-11    1063289.6  0.010007691 -7.419941e-11 -4.3611329e-11 -1.4514954e-10 -7.2717049e-12 2.9607573e-11 -1.0597322e-11    581.12836    21.989593    21.989593    2198.9593    1.5707963    1.5707963    1.5707963 
     200 5.9475671e-10 2.0462048e-09 4.381189e-11    1063289.6  0.010007691 -2.3238051e-11 -2.2344861e-11 -8.5852758e-11 -1.3776026e-12 1.4448675e-11 -5.8536082e-14    581.12836    21.989593    21.989593    2198.9593    1.5707963    1.5707963    1.5707963 
     300 5.9725869e-10 2.0455497e-09 4.4183516e-11    1063289.6  0.010007691 -2.2622506e-11 -2.221725e-11 -8.7710792e-11 -1.2043427e-12 1.3858045e-11 -2.2887494e-13    581.12836    21.989593    21.989593    2198.9593    1.5707963    1.5707963    1.5707963 
     400 5.9908032e-10 2.0452436e-09 4.4066215e-11    1063289.6  0.010007691 -2.2248121e-11 -2.1993243e-11 -8.7957279e-11 -1.1918565e-12 1.3997226e-11 -1.3371085e-13    581.12836    21.989593    21.989593    2198.9593    1.5707963    1.5707963    1.5707963 
     500 6.0073803e-10 2.0449689e-09 4.2942159e-11    1063289.6  0.010007691 -2.2139498e-11 -2.2263643e-11 -8.4423335e-11 -1.2202081e-12 1.4266881e-11 -8.0644622e-14    581.12836    21.989593    21.989593    2198.9593    1.5707963    1.5707963    1.5707963 
     600 6.0159376e-10 2.0447801e-09 4.3382105e-11    1063289.6  0.010007691 -2.183688e-11 -2.1818322e-11 -8.6491114e-11 -1.123068e-12 1.4170772e-11 -1.1798858e-14    581.12836    21.989593    21.989593    2198.9593    1.5707963    1.5707963    1.5707963 
     700 6.0271993e-10 2.0446436e-09 4.2961733e-11    1063289.6  0.010007691 -2.1895187e-11 -2.2226357e-11 -8.4763655e-11 -1.3132244e-12 1.4188642e-11 6.2058557e-14    581.12836    21.989593    21.989593    2198.9593    1.5707963    1.5707963    1.5707963 
     800 6.0429765e-10 2.0449935e-09 4.3098508e-11    1063289.6  0.010007691 -2.1710414e-11 -2.1734871e-11 -8.5850238e-11 -1.1631039e-12 1.4175583e-11 2.3798182e-14    581.12836    21.989593    21.989593    2198.9593    1.5707963    1.5707963    1.5707963 
     900 6.0522325e-10 2.0447306e-09 4.3127804e-11    1063289.6  0.010007691 -2.1796758e-11 -2.2452368e-11 -8.5134288e-11 -1.2072637e-12 1.4388879e-11 -8.2649282e-14    581.12836    21.989593    21.989593    2198.9593    1.5707963    1.5707963    1.5707963 
    1000 6.0638847e-10 2.0447666e-09 4.2502422e-11    1063289.6  0.010007691 -2.1496173e-11 -2.1643287e-11 -8.4367806e-11 -1.0969501e-12 1.4394149e-11 1.0948309e-13    581.12836    21.989593    21.989593    2198.9593    1.5707963    1.5707963    1.5707963 
Loop time of 0.720172 on 1 procs for 1000 steps with 900 atoms

99.8% CPU use with 1 MPI tasks x 1 OpenMP threads

Minimization stats:
  Stopping criterion = max iterations
  Energy initial, next-to-last, final = 
      1450.89791702086   581.128361716439   581.128361716439
  Force two-norm initial, final = 1098.5519 2.0447666e-09
  Force max component initial, final = 55.289056 6.0638847e-10
  Final line search alpha, max atom move = 1 6.0638847e-10
  Iterations, force evaluations = 1000 2000

MPI task timing breakdown:
Section |  min time  |  avg time  |  max time  |%varavg| %total
---------------------------------------------------------------
Pair    | 0.20603    | 0.20603    | 0.20603    |   0.0 | 28.61
Bond    | 0.45675    | 0.45675    | 0.45675    |   0.0 | 63.42
Neigh   | 0          | 0          | 0          |   0.0 |  0.00
Comm    | 0.025698   | 0.025698   | 0.025698   |   0.0 |  3.57
Output  | 0.002728   | 0.002728   | 0.002728   |   0.0 |  0.38
Modify  | 0          | 0          | 0          |   0.0 |  0.00
Other   |            | 0.02897    |            |       |  4.02

Nlocal:            900 ave         900 max         900 min
Histogram: 1 0 0 0 0 0 0 0 0 0
Nghost:           3747 ave        3747 max        3747 min
Histogram: 1 0 0 0 0 0 0 0 0 0
Neighs:           5200 ave        5200 max        5200 min
Histogram: 1 0 0 0 0 0 0 0 0 0

Total # of neighbors = 5200
Ave neighs/atom = 5.7777778
Ave special neighs/atom = 9.6666667
Neighbor list builds = 0
Dangerous builds = 0
undump              minrun
#-------------------------------------------------------------------------------
# Substage 1.3: Velocities
# Initialize velocities to 298.15 (seed 1234) using a gaussian distribution.
#-------------------------------------------------------------------------------
velocity            all create 298.15 1234 dist gaussian mom yes rot no
reset_timestep      0
#-------------------------------------------------------------------------------
# Substage 1.4: NVT-dynamics
# Run 5000 steps with a timestep of 1.0. T from 298.15 to 298.15.
#-------------------------------------------------------------------------------
thermo_style        custom step v_time press vol v_sysdensity temp ebond eangle edihed eimp evdwl ecoul etail elong pe ke
fix                 1 all nvt temp 298.15 298.15 100 drag 1 nreset 1000 mtk yes
fix                 2 all ave/time 1 999 1000 v_time c_thermo_temp c_thermo_press v_sysvol v_sysdensity v_cella v_cellb v_cellc v_etotal v_pe v_ke v_evdwl v_coulomb v_sxx v_syy v_szz v_syz v_sxz v_sxy v_xhi v_yhi v_zhi v_xlo v_ylo v_zlo file 1.4_nvt_instantaneous.out
dump                1 all custom 1000 1.4_nvt.lammpstrj id mol type q xs ys zs
timestep            1.0
run                 5000
  generated 1 of 1 mixed pair_coeff terms from arithmetic mixing rule
Per MPI rank memory allocation (min/avg/max) = 12.13 | 12.13 | 12.13 Mbytes
Step v_time Press Volume v_sysdensity Temp E_bond E_angle E_dihed E_impro E_vdwl E_coul E_tail E_long PotEng KinEng 
       0        1e-06    34.348683    1063289.6  0.010007691       298.15    41.099777    48.844595 1.2167156e-12            0    491.18399            0            0            0    581.12836    798.96694 
     100          100     11.58589    1063289.6  0.010007691    178.18998    224.25648    154.15537    95.575881            0    507.73251            0            0            0    981.72024    477.50429 
     200          200   -22.766661    1063289.6  0.010007691    185.83791    225.63311    173.89409    147.98279            0    490.08534            0            0            0    1037.5953     497.9988 
     300          300    46.843063    1063289.6  0.010007691    218.87902    187.70485    198.04724    117.62578            0    520.07782            0            0            0    1023.4557    586.54067 
     400          400   -48.848327    1063289.6  0.010007691    197.49574    290.61224    197.07289    183.24344            0    490.31296            0            0            0    1161.2415    529.23887 
     500          500   -2.7988534    1063289.6  0.010007691    241.03415    213.93019    202.17702    177.94839            0    511.21761            0            0            0    1105.2732    645.91083 
     600          600  -0.58273861    1063289.6  0.010007691    275.44637    262.18311    189.77276    125.12896            0    499.36545            0            0            0    1076.4503    738.12693 
     700          700    21.036699    1063289.6  0.010007691    258.23944    273.89958    217.75843    171.55457            0    510.00383            0            0            0    1173.2164     692.0167 
     800          800   -28.082054    1063289.6  0.010007691    290.38407    241.91022    214.60421    167.10877            0    499.34999            0            0            0    1122.9732    778.15619 
     900          900    5.2972586    1063289.6  0.010007691    300.51899      279.514     195.8006    152.92865            0    502.31048            0            0            0    1130.5537    805.31524 
    1000         1000    38.068225    1063289.6  0.010007691    309.96219    233.06249    210.84398    168.96581            0    508.51974            0            0            0     1121.392    830.62064 
    1100         1100   -11.880568    1063289.6  0.010007691    328.74819    247.17933    162.23466     180.0153            0    492.40728            0            0            0    1081.8366    880.96239 
    1200         1200    11.800936    1063289.6  0.010007691    285.15613    274.41918    214.84077    204.26066            0    512.15025            0            0            0    1205.6709    764.14662 
    1300         1300     13.20966    1063289.6  0.010007691    309.22868    245.58259    206.16258    186.32677            0    499.55893            0            0            0    1137.6309      828.655 
    1400         1400    4.0515691    1063289.6  0.010007691    286.71885    285.14834    223.76459    184.67286            0    506.74973            0            0            0    1200.3355    768.33432 
    1500         1500   -30.829845    1063289.6  0.010007691    287.00784    287.02514    225.54081    183.67465            0    502.22012            0            0            0    1198.4607    769.10875 
    1600         1600    30.779904    1063289.6  0.010007691    309.50274    263.50734    204.23072    158.98185            0    509.86007            0            0            0      1136.58    829.38941 
    1700         1700   -6.2388316    1063289.6  0.010007691     296.2044     276.8609    226.48245    169.71046            0    499.87715            0            0            0     1172.931    793.75321 
    1800         1800   -2.9006666    1063289.6  0.010007691    289.58331    268.97684    225.44797    185.45235            0    509.97064            0            0            0    1189.8478    776.01036 
    1900         1900    11.435207    1063289.6  0.010007691    298.73454    259.32421    234.10869    166.12397            0    505.82106            0            0            0    1165.3779    800.53336 
    2000         2000    20.897084    1063289.6  0.010007691    301.38552    267.84901    211.32545    172.42693            0    506.86944            0            0            0    1158.4708    807.63732 
    2100         2100    -17.69511    1063289.6  0.010007691    300.52769    273.10151    214.26026    171.64233            0     501.8457            0            0            0    1160.8498    805.33855 
    2200         2200    30.381222    1063289.6  0.010007691    318.85521     245.5803    208.22952    151.28575            0    506.74973            0            0            0    1111.8453    854.45168 
    2300         2300   -6.6868542    1063289.6  0.010007691    297.14552    279.44256    224.96627    169.62254            0    496.85124            0            0            0    1170.8826    796.27519 
    2400         2400   -9.4673266    1063289.6  0.010007691    281.90155    277.16386    242.55716    183.17602            0     508.2295            0            0            0    1211.1265    755.42517 
    2500         2500    3.6777349    1063289.6  0.010007691    298.95319    273.97961    215.47881    171.08343            0    505.21921            0            0            0    1165.7611    801.11929 
    2600         2600    19.224037    1063289.6  0.010007691    299.30869    283.16683    206.02975    171.66448            0    503.15224            0            0            0    1164.0133    802.07193 
    2700         2700    2.1943518    1063289.6  0.010007691    300.75321    256.42824    207.05617    190.43674            0    506.56959            0            0            0    1160.4907    805.94287 
    2800         2800   -27.314107    1063289.6  0.010007691    298.63065    276.76307    219.99756    172.24866            0    497.83903            0            0            0    1166.8483    800.25496 
    2900         2900    50.393164    1063289.6  0.010007691    299.25422     257.2334    216.13355    175.71176            0    515.01919            0            0            0    1164.0979    801.92596 
    3000         3000   -38.719981    1063289.6  0.010007691    286.31083     315.7509    216.25291    176.23436            0    492.44267            0            0            0    1200.6808    767.24095 
    3100         3100    42.332124    1063289.6  0.010007691    303.21521    237.39517     214.7399    177.96699            0    523.35209            0            0            0    1153.4541    812.54043 
    3200         3200   -22.117025    1063289.6  0.010007691    295.92093    290.42775    214.20264    179.67432            0    489.61588            0            0            0    1173.9206     792.9936 
    3300         3300    37.049496    1063289.6  0.010007691    289.46036    252.48618    221.25442    202.97311            0    514.67459            0            0            0    1191.3883    775.68088 
    3400         3400   -31.246175    1063289.6  0.010007691    301.53434    273.34125    205.28099    183.35491            0    496.36494            0            0            0    1158.3421    808.03613 
    3500         3500    14.877979    1063289.6  0.010007691    295.40943    263.02379    216.02344    190.25971            0     505.1391            0            0            0     1174.446    791.62289 
    3600         3600    22.616522    1063289.6  0.010007691    300.05002    261.26343    208.22272    188.59956            0    504.18949            0            0            0    1162.2752    804.05852 
    3700         3700   -29.691815    1063289.6  0.010007691    297.30701     282.7123    219.21094    170.89767            0    497.19276            0            0            0    1170.0137    796.70795 
    3800         3800    42.279725    1063289.6  0.010007691    294.21939    253.22616    213.98715     189.8835            0    521.07782            0            0            0    1178.1746     788.4339 
    3900         3900   -43.394577    1063289.6  0.010007691    298.02912    280.90799    226.93157    175.57139            0    483.71588            0            0            0    1167.1268      798.643 
    4000         4000    48.265272    1063289.6  0.010007691    286.75765    254.59928    230.43143    185.73097            0    526.97995            0            0            0    1197.7416    768.43831 
    4100         4100   -39.709896    1063289.6  0.010007691    294.58695    289.66636    213.70929    186.21981            0    487.70286            0            0            0    1177.2983    789.41887 
    4200         4200    50.313285    1063289.6  0.010007691    295.23181    261.99952    212.71381    180.32363            0    520.59771            0            0            0    1175.6347    791.14693 
    4300         4300   -29.497963    1063289.6  0.010007691    310.21241    266.57872    203.32666    173.07148            0    491.50083            0            0            0    1134.4777    831.29117 
    4400         4400    22.716733    1063289.6  0.010007691    304.90954    256.30252    212.32366    169.63128            0     511.5048            0            0            0    1149.7623     817.0808 
    4500         4500   -1.6726289    1063289.6  0.010007691    297.97469    273.79332    213.09322    180.69452            0    499.79868            0            0            0    1167.3797    798.49715 
    4600         4600   -10.908456    1063289.6  0.010007691    295.06207    282.98255    218.95747    171.25819            0    502.33582            0            0            0     1175.534    790.69207 
    4700         4700    26.938549    1063289.6  0.010007691    302.76051    261.26725    206.76369    174.66098            0    511.99034            0            0            0    1154.6823    811.32194 
    4800         4800   -25.537616    1063289.6  0.010007691    289.13831       283.15     232.7674    181.98523            0    494.23798            0            0            0    1192.1406    774.81789 
    4900         4900    29.884278    1063289.6  0.010007691    303.31489    269.70594    200.79185    167.66726            0    515.58347            0            0            0    1153.7485    812.80755 
    5000         5000   -26.486605    1063289.6  0.010007691    304.95828    265.46452    232.93661    157.63485            0    492.74753            0            0            0    1148.7835     817.2114 
Loop time of 2.11826 on 1 procs for 5000 steps with 900 atoms

Performance: 203.941 ns/day, 0.118 hours/ns, 2360.428 timesteps/s
100.3% CPU use with 1 MPI tasks x 1 OpenMP threads

MPI task timing breakdown:
Section |  min time  |  avg time  |  max time  |%varavg| %total
---------------------------------------------------------------
Pair    | 0.58116    | 0.58116    | 0.58116    |   0.0 | 27.44
Bond    | 1.1908     | 1.1908     | 1.1908     |   0.0 | 56.22
Neigh   | 0.054988   | 0.054988   | 0.054988   |   0.0 |  2.60
Comm    | 0.065692   | 0.065692   | 0.065692   |   0.0 |  3.10
Output  | 0.010952   | 0.010952   | 0.010952   |   0.0 |  0.52
Modify  | 0.19393    | 0.19393    | 0.19393    |   0.0 |  9.16
Other   |            | 0.0207     |            |       |  0.98

Nlocal:            900 ave         900 max         900 min
Histogram: 1 0 0 0 0 0 0 0 0 0
Nghost:           3904 ave        3904 max        3904 min
Histogram: 1 0 0 0 0 0 0 0 0 0
Neighs:           5877 ave        5877 max        5877 min
Histogram: 1 0 0 0 0 0 0 0 0 0

Total # of neighbors = 5877
Ave neighs/atom = 6.53
Ave special neighs/atom = 9.6666667
Neighbor list builds = 97
Dangerous builds = 0
unfix               1
unfix               2
undump              1
reset_timestep      0
#-------------------------------------------------------------------------------
# Substage 1.5: Uniaxial compression dynamics
# Uniaxial compression in the z axis for 100000 steps with a timestep of 1.0.
# Temperature control from 298.15 to 298.15 K. Deformation applied every 1000
# steps, with an t strain equal to: XX)
#-------------------------------------------------------------------------------
variable            strainrate equal ln((lx+4.0)/lz)/100000.0
variable            strainrateconst equal ${strainrate}
variable            strainrateconst equal -4.43804328967088e-05
thermo_style        custom step v_time press vol v_sysdensity temp ebond eangle edihed eimp evdwl ecoul etail elong pe ke
fix                 1 all nvt temp 298.15 298.15 100 drag 1 nreset 1000 mtk yes
fix                 2 all ave/time 1 999 1000 v_time c_thermo_temp c_thermo_press v_sysvol v_sysdensity v_cella v_cellb v_cellc v_etotal v_pe v_ke v_evdwl v_coulomb v_sxx v_syy v_szz v_syz v_sxz v_sxy v_xhi v_yhi v_zhi v_xlo v_ylo v_zlo file 1.5_uniaxialcompression_instantaneous.out
variable            wzhigh equal "v_zhi - 2.0"
variable            wzlow equal "v_zlo + 2.0"
fix                 upperW all indent 10 plane z v_wzhigh hi units box
fix                 lowerW all indent 10 plane z v_wzlow lo units box
fix                 dfrm all deform 1000 z trate ${strainrate} units box remap x
fix                 dfrm all deform 1000 z trate -4.43804328967088e-05 units box remap x
dump                1 all custom 1000 1.5_uniaxialcompression.lammpstrj id mol type q xs ys zs
timestep            1.0
run                 100000
  generated 1 of 1 mixed pair_coeff terms from arithmetic mixing rule
Per MPI rank memory allocation (min/avg/max) = 12.13 | 12.13 | 12.13 Mbytes
Step v_time Press Volume v_sysdensity Temp E_bond E_angle E_dihed E_impro E_vdwl E_coul E_tail E_long PotEng KinEng 
       0        1e-06   -26.486605    1063289.6  0.010007691    304.95828    265.46452    232.93661    157.63485            0    492.74753            0            0            0    1148.7835     817.2114 
     100          100    27.915682    1063289.6  0.010007691    291.42533    277.05817    229.83789    161.62778            0    516.67532            0            0            0    1185.1992    780.94652 
     200          200   -27.492246    1063289.6  0.010007691    297.71165    302.14222    212.78228    160.31021            0    493.29317            0            0            0    1168.5279    797.79227 
     300          300    41.221328    1063289.6  0.010007691    303.58983    250.79733    214.37528    168.48187            0    518.70548            0            0            0      1152.36    813.54431 
     400          400   -22.885408    1063289.6  0.010007691     304.4341    280.66725    199.57853    174.26732            0     496.0903            0            0            0    1150.6034    815.80676 
     500          500    4.5495943    1063289.6  0.010007691    291.71985    261.78354    221.49376    195.30862            0    506.00803            0            0            0    1184.5939    781.73574 
     600          600    15.924195    1063289.6  0.010007691    297.73349    261.11316    219.37568    184.38753            0    504.50938            0            0            0    1169.3857     797.8508 
     700          700   -7.2084177    1063289.6  0.010007691     295.4266     262.0839    220.57464    187.01363            0    504.95604            0            0            0    1174.6282     791.6689 
     800          800     4.951871    1063289.6  0.010007691    302.53811    267.37104    196.14559    188.56562            0    503.26603            0            0            0    1155.3483    810.72596 
     900          900    18.818733    1063289.6  0.010007691    293.16177    274.91166    220.21775    175.85214            0    510.43296            0            0            0    1181.4145    785.59974 
    1000         1000     -2.47746    1017132.2   0.01046184    302.70657    262.06765    210.59742    177.40479            0    505.15111            0            0            0     1155.221     811.1774 
    1100         1100   -369.12223    1017132.2   0.01046184    320.52852    546.66124    242.76259    156.92374            0    401.73512            0            0            0    1348.0827    858.93574 
    1200         1200    171.22339    1017132.2   0.01046184    318.55428    247.51812    255.89749    173.91019            0    611.08278            0            0            0    1288.4086    853.64526 
    1300         1300    -108.4988    1017132.2   0.01046184    327.10223    404.48917    219.75972    162.22678            0    434.24069            0            0            0    1220.7164    876.55161 
    1400         1400    145.96302    1017132.2   0.01046184    315.83094    247.41856    217.44772    192.36284            0     557.9048            0            0            0    1215.1339    846.34742 
    1500         1500   -81.065563    1017132.2   0.01046184    315.04827    311.65722    217.14118    177.93178            0    492.05812            0            0            0    1198.7883    844.25005 
    1600         1600   -22.015146    1017132.2   0.01046184    309.81297    296.70883    239.45456    172.54195            0    492.15205            0            0            0    1200.8574    830.22077 
    1700         1700    108.28084    1017132.2   0.01046184    305.74446    251.49383    234.36667    181.88602            0    538.79235            0            0            0    1206.5389    819.31817 
    1800         1800   -131.13032    1017132.2   0.01046184    298.92837    363.43391    248.93295    155.37888            0    458.56007            0            0            0    1226.3058    801.05277 
    1900         1900    205.11886    1017132.2   0.01046184    309.25972    237.67403    212.44263    163.84446            0    582.79658            0            0            0    1196.7577     828.7382 
    2000         2000   -260.79753    972978.44  0.010936598    293.55501    454.29154    199.25295    164.17933            0    422.78773            0            0            0    1240.5115    786.65351 
    2100         2100   -76.906356    972978.44  0.010936598    309.29184    367.67529    269.38164    166.22379            0    507.79594            0            0            0    1311.0767    828.82426 
    2200         2200   -52.054061    972978.44  0.010936598    294.08256    325.39464    293.78981    172.46979            0    518.78476            0            0            0     1310.439    788.06722 
    2300         2300    93.113143    972978.44  0.010936598    302.25279    342.99492     243.1656    166.24859            0    515.09216            0            0            0    1267.5013    809.96139 
    2400         2400   -54.441835    972978.44  0.010936598    300.54407    352.83961    237.08037     173.4925            0    490.24083            0            0            0    1253.6533    805.38243 
    2500         2500    66.777893    972978.44  0.010936598     310.4364    277.32352    232.18099    161.84572            0    550.45443            0            0            0    1221.8047    831.89139 
    2600         2600   -89.310695    972978.44  0.010936598    298.13028    391.11896    226.38574    167.30635            0    468.77728            0            0            0    1253.5883    798.91408 
    2700         2700    128.83687    972978.44  0.010936598     299.5337    278.45195    232.41706    182.49063            0    555.52081            0            0            0    1248.8804    802.67489 
    2800         2800   -144.59309    972978.44  0.010936598    304.42095    378.72746    224.55239    174.31363            0    459.78409            0            0            0    1237.3776     815.7715 
    2900         2900    165.86151    972978.44  0.010936598    297.23594    274.20309    234.74064    178.09143            0    570.13526            0            0            0    1257.1704    796.51748 
    3000         3000   -169.76527    930741.42    0.0114329     296.3973    424.92372     222.1393    161.17161            0    451.00695            0            0            0    1259.2416    794.27014 
    3100         3100   -227.57258    930741.42    0.0114329    316.42361    471.12701    238.41721     157.7032            0    466.18209            0            0            0    1333.4295    847.93562 
    3200         3200    30.979399    930741.42    0.0114329    296.35474    342.90467    262.82995    169.22192            0     568.7929            0            0            0    1343.7494    794.15609 
    3300         3300   -6.3972819    930741.42    0.0114329    292.70539    462.34218    250.20645    144.59731            0    472.01741            0            0            0    1329.1633    784.37676 
    3400         3400    108.15546    930741.42    0.0114329    303.30424    301.76878     245.9456    171.50121            0    557.43739            0            0            0     1276.653      812.779 
    3500         3500   -149.93992    930741.42    0.0114329    288.52421     394.7438    242.46264    182.33645            0    490.97296            0            0            0    1310.5159    773.17224 
    3600         3600    85.070339    930741.42    0.0114329    315.47632    323.66628    237.52036      146.855            0    524.14366            0            0            0    1232.1853    845.39712 
    3700         3700    26.494664    930741.42    0.0114329    313.87788    340.48337    231.00078    155.59051            0    508.83372            0            0            0    1235.9084    841.11369 
    3800         3800   -63.419387    930741.42    0.0114329    303.65446    353.15042    249.60713    158.25274            0    504.28911            0            0            0    1265.2994    813.71749 
    3900         3900    77.569338    930741.42    0.0114329    310.39264    325.53115    239.73186    146.44552            0    532.82784            0            0            0    1244.5364    831.77414 
    4000         4000   -82.338375    890337.91  0.011951725    297.87935    397.72971    237.03305    169.05441            0    476.31156            0            0            0    1280.1287    798.24166 
    4100         4100   -314.72485    890337.91  0.011951725    326.31332    481.74753    277.35975    167.04665            0    445.83231            0            0            0    1371.9862    874.43754 
    4200         4200    62.285231    890337.91  0.011951725    308.47437    338.85807    273.07332    181.50919            0    574.27662            0            0            0    1367.7172    826.63366 
    4300         4300    15.080992    890337.91  0.011951725    317.77346    440.16964    245.60896    147.98074            0    473.90228            0            0            0    1307.6616    851.55287 
    4400         4400    64.203048    890337.91  0.011951725    309.90588    338.31309    249.27841    178.08606            0     532.1828            0            0            0    1297.8604    830.46973 
    4500         4500   -65.732306    890337.91  0.011951725    308.69552    365.99771    243.80854    151.31405            0    525.47566            0            0            0     1286.596    827.22628 
    4600         4600   -60.541777    890337.91  0.011951725    300.75792    411.70913    246.81673    155.93615            0    482.23611            0            0            0    1296.6981    805.95552 
    4700         4700    185.75821    890337.91  0.011951725    313.78412    321.86233    230.99923    150.25531            0    555.00331            0            0            0    1258.1202    840.86245 
    4800         4800   -214.52974    890337.91  0.011951725    294.30768    442.30942     255.3982    155.32119            0    456.27618            0            0            0     1309.305    788.67048 
    4900         4900    200.92684    890337.91  0.011951725    291.79146    323.45219    233.83637    165.97704            0    592.05184            0            0            0    1315.3174    781.92764 
    5000         5000   -230.53696    851688.31  0.012494094     290.1682    493.43791    248.73921    144.71401            0    431.42166            0            0            0    1318.3128    777.57773 
    5100         5100   -154.52861    851688.31  0.012494094    342.35309    430.46757    260.37098    148.62196            0    482.78859            0            0            0    1322.2491    917.42009 
    5200         5200    -88.81249    851688.31  0.012494094    307.05343    376.36655    289.79111    172.22623            0    532.25075            0            0            0    1370.6346     822.8259 
    5300         5300    78.780974    851688.31  0.012494094    322.46104    408.66887    256.28133    141.50596            0    491.53462            0            0            0    1297.9908    864.11442 
    5400         5400     60.04571    851688.31  0.012494094    305.90494    357.17314    262.56895    177.38165            0    519.39878            0            0            0    1316.5225    819.74822 
    5500         5500   -92.059112    851688.31  0.012494094    304.47124    382.48723    244.27527    166.89285            0    513.63859            0            0            0    1307.2939    815.90625 
    5600         5600    20.943813    851688.31  0.012494094    301.16379    390.68368    258.71503    152.94592            0    509.31333            0            0            0     1311.658    807.04314 
    5700         5700     63.32494    851688.31  0.012494094    305.20408    360.51258     236.5687    179.08689            0     520.0219            0            0            0    1296.1901    817.87011 
    5800         5800   -92.335107    851688.31  0.012494094    299.58269    394.66569     267.0729    164.61416            0    486.38423            0            0            0     1312.737    802.80619 
    5900         5900    111.54145    851688.31  0.012494094    289.67683      355.479    278.22873     161.1699            0    544.49007            0            0            0    1339.3677    776.26098 
    6000         6000   -134.22252     814716.5  0.013061075    301.63501    426.87876    246.44655    159.49535            0    472.46646            0            0            0    1305.2871    808.30588 
    6100         6100   -265.78813     814716.5  0.013061075    308.56578    546.49945    261.64916    163.86364            0    460.11394            0            0            0    1432.1262     826.8786 
    6200         6200    46.898787     814716.5  0.013061075    315.36354    344.50896    291.92351    159.86984            0    567.56852            0            0            0    1363.8708    845.09488 
    6300         6300   -16.619886     814716.5  0.013061075    313.42461    463.86065    262.25884    139.04932            0     474.8603            0            0            0    1340.0291    839.89905 
    6400         6400    93.222212     814716.5  0.013061075    316.15127    360.50534    245.04419    171.29043            0    528.19457            0            0            0    1305.0345    847.20581 
    6500         6500   -90.398692     814716.5  0.013061075    312.27659    385.33677     237.7915    175.17471            0    503.92468            0            0            0    1302.2277    836.82264 
    6600         6600   -28.685483     814716.5  0.013061075    300.26738    396.30031    271.17672    161.44082            0    498.79992            0            0            0    1327.7178    804.64097 
    6700         6700    133.64409     814716.5  0.013061075    318.57191    326.99428    246.32566    165.97438            0    533.55907            0            0            0    1272.8534     853.6925 
    6800         6800   -154.27875     814716.5  0.013061075    296.50994    441.53583    255.53734    172.20392            0    462.91783            0            0            0    1332.1949      794.572 
    6900         6900    160.99771     814716.5  0.013061075    302.28248    327.46303    265.63626    161.91093            0    559.62319            0            0            0    1314.6334    810.04094 
    7000         7000   -202.83356    779349.63  0.013653787    292.75325    470.19419    254.14782    165.74629            0    448.58508            0            0            0    1338.6734      784.505 
    7100         7100   -200.12456    779349.63  0.013653787    302.54745    514.60661    278.75668    173.75507            0    469.75863            0            0            0     1436.877      810.751 
    7200         7200   -8.4820416    779349.63  0.013653787    303.04369    376.09892    291.26161    183.77065            0    536.74031            0            0            0    1387.8715    812.08079 
    7300         7300    55.147544    779349.63  0.013653787    317.61309    396.49516    282.29276     142.6853            0    500.34809            0            0            0    1321.8213    851.12312 
    7400         7400     6.545043    779349.63  0.013653787    289.58013    404.61357     266.9978     196.5323            0    505.52926            0            0            0    1373.6729    776.00185 
    7500         7500   -8.6361896    779349.63  0.013653787    303.17659    392.47667    245.73691    162.40507            0    524.47886            0            0            0    1325.0975    812.43694 
    7600         7600   -69.574514    779349.63  0.013653787     297.0496    413.34878    261.56179    164.60464            0    495.00001            0            0            0    1334.5152    796.01813 
    7700         7700    114.53848    779349.63  0.013653787    289.56401    390.87187    249.88659     182.6714            0    527.99972            0            0            0    1351.4296    775.95864 
    7800         7800   -106.84063    779349.63  0.013653787    309.08871    405.06088     260.5148    161.45658            0    469.88832            0            0            0    1296.9206    828.27992 
    7900         7900     117.4171    779349.63  0.013653787    305.31084    333.52952    244.40246    184.26723            0    546.91719            0            0            0    1309.1164    818.15619 
    8000         8000   -167.45271    745518.04  0.014273395    306.88984    438.78219    235.38302     170.1034            0      463.934            0            0            0    1308.2026    822.38752 
    8100         8100    -316.6311    745518.04  0.014273395    332.44163    532.86407    274.03952    164.87922            0    440.41552            0            0            0    1412.1983    890.85988 
    8200         8200    71.392099    745518.04  0.014273395    300.57649    398.15689    290.30555    181.08539            0    574.12222            0            0            0    1443.6701    805.46932 
    8300         8300   -112.84379    745518.04  0.014273395    300.78107    495.15781    285.14869    171.65457            0    453.90132            0            0            0    1405.8624    806.01753 
    8400         8400      197.105    745518.04  0.014273395    309.83878    355.00489    252.70007    187.66258            0    550.46313            0            0            0    1345.8307    830.28992 
    8500         8500   -106.29637    745518.04  0.014273395    310.52312    422.17805    232.05619    189.95077            0    484.26719            0            0            0    1328.4522    832.12378 
    8600         8600    -59.07371    745518.04  0.014273395    311.60794    382.06373     269.2254    164.36077            0    495.80324            0            0            0    1311.4532    835.03081 
    8700         8700    111.09599    745518.04  0.014273395    318.89461    351.84491    250.86042    160.42462            0    518.78703            0            0            0     1281.917    854.55727 
    8800         8800   -73.733308    745518.04  0.014273395    288.95097    424.45656    295.43665    168.21914            0    470.82382            0            0            0    1358.9362    774.31586 
    8900         8900    137.25434    745518.04  0.014273395     299.8613    329.42867    283.78366    174.46819            0    535.92035            0            0            0    1323.6009    803.55279 
    9000         9000   -253.08074    713155.08  0.014921122    298.95206    440.43804    266.38851    175.30646            0    442.12448            0            0            0    1324.2575    801.11625 
    9100         9100   -232.32056    713155.08  0.014921122    319.34901    488.19553    277.23115     170.2435            0    451.70373            0            0            0    1387.3739    855.77495 
    9200         9200    61.931556    713155.08  0.014921122     314.9506    340.88706    280.25442    200.41595            0    531.24844            0            0            0    1352.8059    843.98832 
    9300         9300   -22.770263    713155.08  0.014921122    314.00338    438.76255    263.48208    158.91796            0    472.06149            0            0            0    1333.2241    841.45001 
    9400         9400    32.518066    713155.08  0.014921122    306.27329    379.67337    255.01775    193.55403            0    503.49475            0            0            0    1331.7399    820.73531 
    9500         9500    22.315179    713155.08  0.014921122    309.86052     366.1142    267.92286    168.41862            0    513.15673            0            0            0    1315.6124    830.34818 
    9600         9600   -104.54162    713155.08  0.014921122    308.69247    423.77901    244.01932    174.40311            0    470.54764            0            0            0    1312.7491     827.2181 
    9700         9700    161.47835    713155.08  0.014921122    308.90246    340.97897    254.10653    179.16276            0    538.22952            0            0            0    1312.4778    827.78082 
    9800         9800   -209.30881    713155.08  0.014921122    300.45509    440.52977     273.1481    176.32812            0    446.08002            0            0            0     1336.086    805.14401 
    9900         9900    252.49469    713155.08  0.014921122     298.3103    312.56493    264.66661    198.00359            0    564.57389            0            0            0     1339.809    799.39649 
   10000        10000   -285.08021    682196.99  0.015598242    286.79146    502.82269    242.11628    197.63247            0    430.10815            0            0            0    1372.6796     768.5289 
   10100        10100   -260.39288    682196.99  0.015598242    322.90596    472.89836    250.46092    189.72032            0    456.80605            0            0            0    1369.8857    865.30668 
   10200        10200    7.2725001    682196.99  0.015598242     312.5673    344.32674    277.41115    197.96092            0    536.70291            0            0            0    1356.4017    837.60167 
   10300        10300    34.455847    682196.99  0.015598242    301.23122    453.08477    262.51825    180.95069            0    472.10167            0            0            0    1368.6554    807.22384 
   10400        10400    64.178482    682196.99  0.015598242    313.12182    365.33273    258.55137    177.01918            0    515.47724            0            0            0    1316.3805    839.08764 
   10500        10500   -96.504031    682196.99  0.015598242    294.28155    414.34509    255.99414    187.22916            0     504.7789            0            0            0    1362.3473    788.60046 
   10600        10600   -45.347801    682196.99  0.015598242    295.00228    420.70938    256.63282    189.56432            0    489.65683            0            0            0    1356.5633    790.53183 
   10700        10700    148.97231    682196.99  0.015598242    307.34789    353.56202    253.27732    190.97803            0    521.17904            0            0            0    1318.9964    823.61495 
   10800        10800   -122.07208    682196.99  0.015598242    302.14491    411.59877     279.3192    167.74229            0    475.02332            0            0            0    1333.6836    809.67229 
   10900        10900    73.071474    682196.99  0.015598242    286.61133    371.70248    268.94127     203.6448            0    527.74952            0            0            0    1372.0381    768.04621 
   11000        11000   -119.13964     652582.8   0.01630609    293.09555    426.34145    275.31149    192.00728            0    458.48135            0            0            0    1352.1416    785.42229 
   11100        11100   -326.07471     652582.8   0.01630609    340.20144    503.30863    273.20205    171.10392            0    442.36813            0            0            0    1389.9827    911.65421 
   11200        11200    32.288657     652582.8   0.01630609    327.24429    355.33696    286.46603    173.89231            0    555.22741            0            0            0    1370.9227    876.93232 
   11300        11300   -35.572813     652582.8   0.01630609    320.60532    461.22902     267.6699    171.32888            0    452.96918            0            0            0     1353.197    859.14153 
   11400        11400    140.24821     652582.8   0.01630609    301.35355    389.96267    266.00628    190.88798            0    527.49879            0            0            0    1374.3557    807.55163 
   11500        11500   -86.936538     652582.8   0.01630609    314.18346     397.4745    245.41706    187.51582            0    492.52097            0            0            0    1322.9283    841.93258 
   11600        11600   -97.012824     652582.8   0.01630609    304.35451    423.58592    245.14004    192.07209            0    478.69533            0            0            0    1339.4934    815.59345 
   11700        11700    165.91743     652582.8   0.01630609    311.94298    336.66818    253.29224     193.9857            0    529.43141            0            0            0    1313.3775    835.92866 
   11800        11800   -142.18419     652582.8   0.01630609    298.82226     434.0707    279.57092    172.39858            0    460.07629            0            0            0    1346.1165    800.76843 
   11900        11900    227.08397     652582.8   0.01630609    282.99157    359.35069    285.36456    174.53863            0    569.66063            0            0            0    1388.9145    758.34616 
   12000        12000   -377.81601    624254.16   0.01704606     286.0437    543.56492    229.99261    187.35465            0    416.53414            0            0            0    1377.4463     766.5251 
   12100        12100   -128.70713    624254.16   0.01704606    317.72764    425.12828    259.24223    189.48647            0    476.05789            0            0            0    1349.9149    851.43008 
   12200        12200   -42.794088    624254.16   0.01704606    316.53308    354.40316     267.2976    195.99343            0    502.89117            0            0            0    1320.5854    848.22897 
   12300        12300    54.109815    624254.16   0.01704606    296.49346    431.56095    277.51102    170.80048            0    479.15577            0            0            0    1359.0282    794.52784 
   12400        12400   -14.393512    624254.16   0.01704606    288.46336    389.30314    295.09779    203.18257            0     476.1747            0            0            0    1363.7582    773.00919 
   12500        12500    47.403342    624254.16   0.01704606    303.99715    349.06944     287.0209     179.1758            0    500.67907            0            0            0    1315.9452    814.63582 
   12600        12600   -58.418241    624254.16   0.01704606    303.77986    408.00198    257.52241    186.17415            0    457.48493            0            0            0    1309.1835    814.05355 
   12700        12700    102.61552    624254.16   0.01704606     313.1949    338.10037    253.67629     185.2587            0    498.40667            0            0            0     1275.442    839.28348 
   12800        12800   -143.76996    624254.16   0.01704606    288.54478    444.43199    264.86116    191.95365            0    441.64595            0            0            0    1342.8928    773.22735 
   12900        12900     195.8429    624254.16   0.01704606    299.77602    355.92484    261.61715    172.88638            0    519.02324            0            0            0    1309.4516    803.32426 
   13000        13000   -171.88797    597155.27  0.017819609    294.79185     446.0507    249.79483    187.45497            0    437.15192            0            0            0    1320.4524    789.96793 
   13100        13100   -383.10597    597155.27  0.017819609    319.89887    502.90958    261.59812    194.21332            0     412.6843            0            0            0    1371.4053    857.24844 
   13200        13200    75.869923    597155.27  0.017819609     303.3121    343.93104    295.37318    207.40828            0     522.8671            0            0            0    1369.5796    812.80007 
   13300        13300   -13.499154    597155.27  0.017819609    310.24262    456.39607    269.38092    170.10172            0    430.75802            0            0            0    1326.6367    831.37212 
   13400        13400    170.46666    597155.27  0.017819609    305.24223    361.51098    274.96069    173.11151            0    506.04929            0            0            0    1315.6325    817.97233 
   13500        13500   -234.84159    597155.27  0.017819609    300.44971    416.44471    270.21161    177.68888            0     455.9069            0            0            0    1320.2521    805.12959 
   13600        13600    52.857399    597155.27  0.017819609    312.30275     381.9288     252.2555    174.20049            0    477.23841            0            0            0    1285.6232    836.89273 
   13700        13700    146.29821    597155.27  0.017819609    303.14881    380.43654     254.0717    184.49205            0    488.70749            0            0            0    1307.7078    812.36248 
   13800        13800   -135.92668    597155.27  0.017819609     303.1962    413.28499    258.42044    191.40406            0    443.85136            0            0            0    1306.9609    812.48948 
   13900        13900    105.92614    597155.27  0.017819609    287.88334    362.91547    282.30814    188.01267            0    512.20783            0            0            0    1345.4441    771.45488 
   14000        14000   -165.49701    571232.74  0.018628263    311.05779    452.48423    244.41182    159.18176            0    427.98439            0            0            0    1284.0622    833.55657 
   14100        14100   -279.19463    571232.74  0.018628263    314.70504    500.67452    290.43335    186.82852            0    430.33821            0            0            0    1408.2746    843.33028 
   14200        14200   -57.448041    571232.74  0.018628263    301.69146    381.23121    297.17742    218.70341            0    500.11876            0            0            0    1397.2308    808.45715 
   14300        14300    18.308402    571232.74  0.018628263    312.74999    428.51857    271.36201    180.08882            0    457.24734            0            0            0    1337.2167    838.09123 
   14400        14400    123.71875    571232.74  0.018628263    310.70838      384.975    273.85698     180.8014            0     478.9613            0            0            0    1318.5947    832.62024 
   14500        14500   -29.664041    571232.74  0.018628263    305.39028    401.47702     248.9759    187.77183            0    481.44652            0            0            0    1319.6713    818.36906 
   14600        14600   -224.03953    571232.74  0.018628263    302.38032    437.22277    246.85523    198.15655            0     433.6226            0            0            0    1315.8572    810.30314 
   14700        14700    289.56089    571232.74  0.018628263    303.94279     362.5425     236.1383    195.00098            0    511.13472            0            0            0    1304.8165    814.49014 
   14800        14800    -165.7915    571232.74  0.018628263    295.49826    447.41958    259.95452    191.60827            0    421.07495            0            0            0    1320.0573    791.86093 
   14900        14900     180.0733    571232.74  0.018628263    300.75831     333.3675    254.98377    208.35408            0    502.34921            0            0            0    1299.0546    805.95654 
   15000        15000   -281.64605    546435.51  0.019473613     301.6275    454.99097    247.07574    186.60606            0    401.89428            0            0            0    1290.5671    808.28577 
   15100        15100   -251.28228    546435.51  0.019473613    331.73042    465.52998    247.66125     170.3044            0    412.85687            0            0            0    1296.3525    888.95402 
   15200        15200    63.267081    546435.51  0.019473613    299.81521    370.68712    281.21467    202.79696            0    488.04492            0            0            0    1342.7437    803.42927 
   15300        15300   -79.629954    546435.51  0.019473613    322.53332    433.19537    255.82893    153.07443            0    419.27309            0            0            0    1261.3718    864.30809 
   15400        15400    108.30553    546435.51  0.019473613    307.63018    360.01659    271.99402    169.08049            0     485.0621            0            0            0    1286.1532    824.37144 
   15500        15500   -53.861427    546435.51  0.019473613    301.62991    393.44249    265.04716    184.16098            0    456.21173            0            0            0    1298.8624    808.29223 
   15600        15600   -38.665838    546435.51  0.019473613    276.29063    417.26865    277.44252    221.30371            0     449.4043            0            0            0    1365.4192    740.38933 
   15700        15700    76.860083    546435.51  0.019473613    302.86928    358.78032    254.10782     207.2386            0     469.1317            0            0            0    1289.2584    811.61343 
   15800        15800   -34.326129    546435.51  0.019473613    288.14431    424.05986    267.81944    199.30396            0    438.51424            0            0            0    1329.6975     772.1542 
   15900        15900    122.09268    546435.51  0.019473613    306.18536    347.67522    255.16668    194.41787            0    477.54458            0            0            0    1274.8043    820.49967 
   16000        16000   -205.84025    522714.73  0.020357325    299.64458    446.30333    244.28738    181.48669            0    422.09732            0            0            0    1294.1747    802.97203 
   16100        16100   -397.51695    522714.73  0.020357325    330.71094    521.76516     291.9234    162.18638            0    397.82066            0            0            0    1373.6956    886.22206 
   16200        16200    133.97276    522714.73  0.020357325    313.95342    355.06756     287.9972    209.84414            0    511.87246            0            0            0    1364.7814    841.31612 
   16300        16300   -85.920359    522714.73  0.020357325    311.29245    457.61708    290.04144    170.12615            0    423.12214            0            0            0    1340.9068    834.18538 
   16400        16400    150.56239    522714.73  0.020357325    304.63069    366.65975    267.38806    206.43125            0    487.72792            0            0            0     1328.207    816.33356 
   16500        16500   -75.633342    522714.73  0.020357325    312.91649    390.53175    255.46067    197.56626            0    446.82457            0            0            0    1290.3832     838.5374 
   16600        16600   -33.859988    522714.73  0.020357325    294.33488    403.46506     280.6255    201.44557            0    444.91612            0            0            0    1330.4523    788.74337 
   16700        16700    174.30165    522714.73  0.020357325    320.09144    335.74459    268.22238    164.43832            0    484.85837            0            0            0    1253.2636    857.76447 
   16800        16800   -223.10123    522714.73  0.020357325    301.77651    460.75655    264.16144    166.60853            0    410.94733            0            0            0    1302.4739    808.68508 
   16900        16900     290.8648    522714.73  0.020357325    307.37851    324.15094    269.13075    180.92061            0    509.71587            0            0            0    1283.9182    823.69703 
   17000        17000    -418.8484    500023.67   0.02128114    294.79288    481.43387    252.99718    198.33322            0    382.63058            0            0            0    1315.3948     789.9707 
   17100        17100   -241.74508    500023.67   0.02128114    331.20014    449.14424    259.60219    184.51253            0    414.21419            0            0            0    1307.4732    887.53299 
   17200        17200    24.113961    500023.67   0.02128114    314.39888    349.22991    294.27916    193.17008            0    472.26069            0            0            0    1308.9399    842.50983 
   17300        17300    -23.68918    500023.67   0.02128114    317.52154    427.46512    259.45091    176.67888            0     415.1056            0            0            0    1278.7005    850.87779 
   17400        17400     64.89648    500023.67   0.02128114    290.57622    365.86394    282.91991    214.26839            0    465.71889            0            0            0    1328.7711    778.67111 
   17500        17500    9.9672229    500023.67   0.02128114    304.90937    362.30684    266.57866    200.97505            0    453.67269            0            0            0    1283.5333    817.08034 
   17600        17600   -96.542145    500023.67   0.02128114    280.05964    434.18734    269.96063    202.22912            0    443.11728            0            0            0    1349.4944    750.48934 
   17700        17700    103.81036    500023.67   0.02128114    301.84047    371.39296    233.92539    211.71408            0    473.24702            0            0            0    1290.2795    808.85648 
   17800        17800   -116.61704    500023.67   0.02128114    277.92488    428.43679    276.81897    229.04361            0    420.79381            0            0            0    1355.0932    744.76872 
   17900        17900    215.78499    500023.67   0.02128114    292.95586    376.85492    247.18698    205.92402            0    485.59488            0            0            0    1315.5608    785.04796 
   18000        18000   -341.45209    478317.62  0.022246878    297.35458    436.50501    255.78883    206.33095            0     401.1239            0            0            0    1299.7487    796.83541 
   18100        18100   -387.91982    478317.62  0.022246878    312.57573    514.28719    268.57739    172.49138            0    395.50258            0            0            0    1350.8585    837.62427 
   18200        18200    131.77144    478317.62  0.022246878    304.64187     354.7145    286.84213    198.33404            0    487.28536            0            0            0     1327.176    816.36352 
   18300        18300   -68.334482    478317.62  0.022246878    309.21716    430.97586    268.19522    189.66645            0    401.30242            0            0            0    1290.1399    828.62415 
   18400        18400    107.89523    478317.62  0.022246878    300.75807    338.89379    249.28725     248.4123            0    455.83622            0            0            0    1292.4296     805.9559 
   18500        18500   -91.407016    478317.62  0.022246878    308.62121    375.62924     244.4968     209.1317            0    432.07747            0            0            0    1261.3352    827.02713 
   18600        18600   -9.3661301    478317.62  0.022246878    285.60923      411.528    263.87479    210.93947            0    433.07972            0            0            0     1319.422    765.36084 
   18700        18700    123.43543    478317.62  0.022246878    301.58001    355.06409    275.35489    178.98022            0    463.14657            0            0            0    1272.5458    808.15849 
   18800        18800   -164.19161    478317.62  0.022246878    288.67504     415.9354    285.07083    184.97877            0    424.54525            0            0            0    1310.5302    773.57643 
   18900        18900    152.59258    478317.62  0.022246878    311.52661    342.65779    244.14492    198.53582            0     465.5797            0            0            0    1250.9182    834.81289 
   19000        19000   -184.39245    457553.84   0.02325644    308.24529    411.48773    236.68831    204.87118            0    406.46806            0            0            0    1259.5153    826.01976 
   19100        19100   -425.47808    457553.84   0.02325644    326.37242    515.14336    252.23974    178.59282            0    395.31496            0            0            0    1341.2909    874.59593 
   19200        19200    26.143664    457553.84   0.02325644    311.95603    343.39132    290.05233    213.58428            0    483.60179            0            0            0    1330.6297    835.96363 
   19300        19300    24.242737    457553.84   0.02325644    301.01742     445.6824    282.04538    189.45326            0    416.71119            0            0            0    1333.8922     806.6509 
   19400        19400    129.02675    457553.84   0.02325644    307.24766    356.93289    251.22913    227.15241            0    457.61098            0            0            0    1292.9254    823.34636 
   19500        19500   -122.40869    457553.84   0.02325644    303.12156    383.08551    258.36763    205.38853            0    442.74807            0            0            0    1289.5897    812.28947 
   19600        19600   -69.979638    457553.84   0.02325644    310.73866    388.53444    249.49862    200.94515            0    418.79468            0            0            0    1257.7729    832.70136 
   19700        19700     216.7343    457553.84   0.02325644    308.40459    371.19861    230.82601    189.78061            0    465.11266            0            0            0    1256.9179    826.44666 
   19800        19800   -197.98927    457553.84   0.02325644      300.982     394.3532    260.74702    215.26041            0    400.04006            0            0            0    1270.4007    806.55599 
   19900        19900    243.53583    457553.84   0.02325644    288.78873    366.22502    245.18547    214.16273            0    479.24354            0            0            0    1304.8168    773.88109 
   20000        20000   -309.78715    437691.42  0.024311817    295.56807    421.07756      275.756    190.76945            0    394.64719            0            0            0    1282.2502    792.04802 
   20100        20100   -432.00698    437691.42  0.024311817    336.19607    470.52731     265.0014    190.78214            0    384.18893            0            0            0    1310.4998    900.92082 
   20200        20200    76.864965    437691.42  0.024311817    296.41162    355.09503    287.42258    239.88031            0     489.0793            0            0            0    1371.4772    794.30851 
   20300        20300   -94.914519    437691.42  0.024311817    327.26977    409.02187    271.70652    179.44951            0    397.88341            0            0            0    1258.0613    877.00059 
   20400        20400    234.98839    437691.42  0.024311817    287.69398     381.1434    280.87068    203.89015            0    475.31126            0            0            0    1341.2155    770.94742 
   20500        20500   -135.44502    437691.42  0.024311817    299.88964    387.30583    267.84246    206.77198            0    432.52952            0            0            0    1294.4498    803.62873 
   20600        20600   -96.326268    437691.42  0.024311817    295.86563    380.31765    268.41367    222.11262            0    429.38591            0            0            0    1300.2299     792.8454 
   20700        20700    191.90443    437691.42  0.024311817    320.82778    333.10392    244.69837    191.22177            0    461.24768            0            0            0    1230.2717    859.73768 
   20800        20800   -134.48739    437691.42  0.024311817    315.22497      402.601    243.25873    189.55768            0    409.31759            0            0            0     1244.735    844.72355 
   20900        20900    235.36584    437691.42  0.024311817    297.95478     345.4177    260.50308    206.90241            0    480.65584            0            0            0     1293.479     798.4438 
   21000        21000   -415.25772    418691.22  0.025415087    305.68237    433.62084    242.47649    202.43219            0    386.97834            0            0            0    1265.5079     819.1518 
   21100        21100   -394.49446    418691.22  0.025415087    321.23109    493.89791    261.34332    171.00408            0    397.80464            0            0            0    1324.0499    860.81844 
   21200        21200    81.889197    418691.22  0.025415087    317.67669    330.22062    265.51918    221.98964            0    472.52833            0            0            0    1290.2578    851.29354 
   21300        21300   -106.41662    418691.22  0.025415087    312.48145    424.55317    261.77859    188.35597            0    407.39958            0            0            0    1282.0873    837.37162 
   21400        21400    78.257867    418691.22  0.025415087     294.9152    371.74798    270.22561    214.85411            0     459.8676            0            0            0    1316.6953    790.29848 
   21500        21500    -47.74876    418691.22  0.025415087    298.78208     379.5411    276.53654    192.61905            0    449.11812            0            0            0    1297.8148    800.66076 
   21600        21600   -45.451554    418691.22  0.025415087    294.63366    401.80493    267.35855    203.68884            0    433.98128            0            0            0    1306.8336    789.54403 
   21700        21700    159.13913    418691.22  0.025415087    300.11592    373.33867    243.95066    200.35872            0     471.6344            0            0            0    1289.2824    804.23512 
   21800        21800   -196.86582    418691.22  0.025415087     297.4912    423.11184    259.12655    213.58564            0    396.15798            0            0            0     1291.982    797.20152 
   21900        21900    325.54636    418691.22  0.025415087    303.84975    332.83622    248.64787    216.71075            0    471.57049            0            0            0    1269.7653    814.24083 
   22000        22000    -394.7133    400515.82  0.026568423    301.20757    442.44756    233.30703    214.19269            0    380.89362            0            0            0    1270.8409    807.16045 
   22100        22100   -407.46032    400515.82  0.026568423    315.62678    463.92168     271.7525    188.66505            0    386.68642            0            0            0    1311.0257    845.80031 
   22200        22200    99.829739    400515.82  0.026568423    297.83817     353.8366    288.43589    209.02758            0    469.42547            0            0            0    1320.7255     798.1313 
   22300        22300   -80.873806    400515.82  0.026568423    299.43968    414.46749    285.48264    195.15246            0    401.74819            0            0            0    1296.8508    802.42295 
   22400        22400    95.883565    400515.82  0.026568423    292.02832    356.64405    272.72756    230.62077            0    439.90417            0            0            0    1299.8965    782.56238 
   22500        22500   -42.892598    400515.82  0.026568423    315.19569    341.04316    252.81061    208.12572            0    427.68892            0            0            0    1229.6684     844.6451 
   22600        22600   -79.498456    400515.82  0.026568423    297.30095    386.08929    242.11224    218.39606            0    428.73618            0            0            0    1275.3338     796.6917 
   22700        22700    142.88976    400515.82  0.026568423    305.76385    352.59488    249.23195    206.82982            0    449.67171            0            0            0    1258.3284    819.37013 
   22800        22800   -140.92518    400515.82  0.026568423    304.52449    382.27849    259.90882    206.29596            0    414.51367            0            0            0    1262.9969    816.04896 
   22900        22900    195.93162    400515.82  0.026568423    298.95777    354.08313    269.53785    192.36484            0    468.04944            0            0            0    1284.0353    801.13155 
   23000        23000   -247.16211    383129.42  0.027774097    285.58435    433.19193    252.13533    230.11224            0    404.14172            0            0            0    1319.5812    765.29416 
   23100        23100   -605.79757    383129.42  0.027774097    318.76368    492.52367    290.51416    202.71327            0    377.51537            0            0            0    1363.2665    854.20641 
   23200        23200    148.49617    383129.42  0.027774097    306.34516     340.9048    286.82831    233.01991            0    487.67003            0            0            0    1348.4231    820.92789 
   23300        23300    -75.58318    383129.42  0.027774097    314.93967    418.24059    263.46125    205.92525            0    406.29409            0            0            0    1293.9212    843.95903 
   23400        23400    210.32798    383129.42  0.027774097    304.75959    351.35325    252.95109    238.18599            0    453.75312            0            0            0    1296.2434    816.67898 
   23500        23500   -160.82482    383129.42  0.027774097    295.05435    386.99273    273.31291    209.83707            0    437.21309            0            0            0    1307.3558    790.67138 
   23600        23600   -117.10125    383129.42  0.027774097    313.31751    385.34694    240.57619    204.72951            0    419.22103            0            0            0    1249.8737    839.61203 
   23700        23700    344.63539    383129.42  0.027774097    314.16362    316.80111    254.20446     206.8202            0    463.24735            0            0            0    1241.0731    841.87941 
   23800        23800   -285.84753    383129.42  0.027774097     300.0203    397.01897    261.17921    220.73844            0    398.47046            0            0            0    1277.4071    803.97888 
   23900        23900    307.61148    383129.42  0.027774097     301.6361     306.8217    254.54556    221.96467            0    492.78584            0            0            0    1276.1178    808.30881 
   24000        24000   -389.32156    366497.76  0.029034485    297.07411    453.31532    251.99147     201.8285            0    382.03338            0            0            0    1289.1687    796.08382 
   24100        24100   -368.28964    366497.76  0.029034485    325.69577    442.34875    255.69581    203.73421            0    397.33025            0            0            0     1299.109    872.78265 
   24200        24200   -21.812237    366497.76  0.029034485    283.20695    348.82489    302.81236    251.87319            0    471.25908            0            0            0    1374.7695    758.92333 
   24300        24300   -23.182173    366497.76  0.029034485    308.03325    400.32309     269.6671    211.01536            0    408.05602            0            0            0    1289.0616    825.45155 
   24400        24400    237.71262    366497.76  0.029034485    290.58191    376.90375    257.34641    217.49347            0    466.39954            0            0            0    1318.1432    778.68636 
   24500        24500   -158.74503    366497.76  0.029034485    295.35286     387.8172    270.74881    209.25438            0    433.48762            0            0            0     1301.308     791.4713 
   24600        24600   -65.701765    366497.76  0.029034485    290.06273    377.25552    267.89718    229.56711            0    438.07037            0            0            0    1312.7902    777.29508 
   24700        24700    189.85072    366497.76  0.029034485    332.47773    313.90266    239.62672     187.5296            0    461.14783            0            0            0    1202.2068    890.95662 
   24800        24800    -120.5569    366497.76  0.029034485    290.44547    398.20266    270.55201    225.74287            0    428.71963            0            0            0    1323.2172    778.32075 
   24900        24900    135.95295    366497.76  0.029034485    309.60368    342.10271    246.00842    215.93047            0    470.48243            0            0            0     1274.524    829.65992 
   25000        25000   -226.20568    350588.08  0.030352069    288.22447    419.62476    284.73788    207.21787            0    422.08627            0            0            0    1333.6668    772.36902 
   25100        25100   -509.79879    350588.08  0.030352069    337.42547    485.52763    258.77664    202.26035            0    389.05242            0            0            0     1335.617     904.2153 
   25200        25200     59.10867    350588.08  0.030352069    284.97667    356.06644    282.49513    299.17012            0    488.13143            0            0            0    1425.8631    763.66573 
   25300        25300   -75.903858    350588.08  0.030352069    325.21874    396.80649    269.22277    207.15775            0    413.66149            0            0            0    1286.8485    871.50436 
   25400        25400     256.8281    350588.08  0.030352069    306.20672    334.99604    270.70347    230.89417            0    471.90978            0            0            0    1308.5035    820.55691 
   25500        25500   -201.95183    350588.08  0.030352069    297.04463    381.12295    270.22059    228.86023            0    435.08518            0            0            0     1315.289    796.00483 
   25600        25600   -147.37429    350588.08  0.030352069    303.45876    390.35463    254.52385    212.61124            0     427.3763            0            0            0     1284.866    813.19309 
   25700        25700    347.15921    350588.08  0.030352069    310.50773    332.32465    240.86625    203.59785            0    483.02128            0            0            0      1259.81    832.08255 
   25800        25800   -363.66031    350588.08  0.030352069    286.71453    416.50559    268.97081    241.89392            0    394.87582            0            0            0    1322.2461    768.32275 
   25900        25900    354.02888    350588.08  0.030352069    294.29802     310.5442    265.08319    233.04964            0    493.07122            0            0            0    1301.7482     788.6446 
   26000        26000   -442.20079    335369.04  0.031729445    316.30687    435.74036    246.07067      169.084            0    388.50491            0            0            0    1239.3999    847.62278 
   26100        26100   -392.27992    335369.04  0.031729445    334.06168    436.82543    257.64684    201.05582            0    396.64975            0            0            0    1292.1778    895.20119 
   26200        26200   -39.736142    335369.04  0.031729445    293.65443    356.58715     288.6145    240.96734            0    473.46856            0            0            0    1359.6376    786.91994 
   26300        26300   -12.649916    335369.04  0.031729445    326.30462    375.96331      260.526    187.45738            0     423.6029            0            0            0    1247.5496    874.41422 
   26400        26400    148.83614    335369.04  0.031729445    292.43353    350.27775    298.96776    209.90183            0    461.81439            0            0            0    1320.9617    783.64823 
   26500        26500   -86.028802    335369.04  0.031729445    298.87038       367.32    268.37561    219.92934            0    439.68002            0            0            0     1295.305    800.89738 
   26600        26600   -170.90987    335369.04  0.031729445    289.91407    404.66779    261.15033    215.76723            0    431.77576            0            0            0    1313.3611    776.89671 
   26700        26700    225.33731    335369.04  0.031729445    308.52702    341.14922    250.60482     204.9386            0    461.88306            0            0            0    1258.5757    826.77473 
   26800        26800   -158.29074    335369.04  0.031729445    295.64644    404.39199    276.44942     196.1092            0    418.07671            0            0            0    1295.0273    792.25804 
[...]
    4800         4800    341.28155    10364.258    1.0267087    294.70742     323.0297    246.76885    217.98931            0   -85.481614            0            0            0    702.30625     789.7417 
    4900         4900   -1416.8313    10364.258    1.0267087    303.47101     326.3271    246.52592      206.609            0   -97.988139            0            0            0    681.47388    813.22589 
    5000         5000    2609.4589    10364.258    1.0267087    302.70062     318.4027    249.13152    203.94258            0   -85.881575            0            0            0    685.59523    811.16145 
Loop time of 38.2301 on 1 procs for 5000 steps with 900 atoms

Performance: 11.300 ns/day, 2.124 hours/ns, 130.787 timesteps/s
100.0% CPU use with 1 MPI tasks x 1 OpenMP threads

MPI task timing breakdown:
Section |  min time  |  avg time  |  max time  |%varavg| %total
---------------------------------------------------------------
Pair    | 35.456     | 35.456     | 35.456     |   0.0 | 92.74
Bond    | 1.2866     | 1.2866     | 1.2866     |   0.0 |  3.37
Neigh   | 0.90612    | 0.90612    | 0.90612    |   0.0 |  2.37
Comm    | 0.22133    | 0.22133    | 0.22133    |   0.0 |  0.58
Output  | 0.011489   | 0.011489   | 0.011489   |   0.0 |  0.03
Modify  | 0.28918    | 0.28918    | 0.28918    |   0.0 |  0.76
Other   |            | 0.05923    |            |       |  0.15

Nlocal:            900 ave         900 max         900 min
Histogram: 1 0 0 0 0 0 0 0 0 0
Nghost:           9886 ave        9886 max        9886 min
Histogram: 1 0 0 0 0 0 0 0 0 0
Neighs:         446607 ave      446607 max      446607 min
Histogram: 1 0 0 0 0 0 0 0 0 0

Total # of neighbors = 446607
Ave neighs/atom = 496.23
Ave special neighs/atom = 9.6666667
Neighbor list builds = 68
Dangerous builds = 0
unfix               1
unfix               2
undump              1
reset_timestep      0
#-------------------------------------------------------------------------------
# Substage 1.8: NVE-dynamics
# Run 5000 steps with a timestep of 1.0.
#-------------------------------------------------------------------------------
thermo_style        custom step v_time press vol v_sysdensity temp ebond eangle edihed eimp evdwl ecoul etail elong pe ke
fix                 1 all nve nreset 1000 mtk yes
fix                 2 all ave/time 1 999 1000 v_time c_thermo_temp c_thermo_press v_sysvol v_sysdensity v_cella v_cellb v_cellc v_etotal v_pe v_ke v_evdwl v_coulomb v_sxx v_syy v_szz v_syz v_sxz v_sxy v_xhi v_yhi v_zhi v_xlo v_ylo v_zlo file 1.8_nve_instantaneous.out
dump                1 all custom 1000 1.8_nve.lammpstrj id mol type q xs ys zs
timestep            1.0
run                 5000
  generated 1 of 1 mixed pair_coeff terms from arithmetic mixing rule
Per MPI rank memory allocation (min/avg/max) = 14.05 | 14.05 | 14.05 Mbytes
Step v_time Press Volume v_sysdensity Temp E_bond E_angle E_dihed E_impro E_vdwl E_coul E_tail E_long PotEng KinEng 
       0        1e-06    2609.4589    10364.258    1.0267087    302.70062     318.4027    249.13152    203.94258            0   -85.881575            0            0            0    685.59523    811.16145 
     100          100   -717.40022    10364.258    1.0267087    301.96213    319.19497    249.43559    198.75972            0   -80.193473            0            0            0    687.19681    809.18247 
     200          200    1272.5753    10364.258    1.0267087    295.21126    300.08494    256.32665    215.10534            0    -67.17601            0            0            0    704.34091    791.09184 
     300          300   -929.47819    10364.258    1.0267087    278.17424    360.96514    258.57461    222.78454            0   -88.990681            0            0            0    753.33361    745.43693 
     400          400    1410.4418    10364.258    1.0267087    301.54943    311.25481    250.15885     209.6905            0   -83.482555            0            0            0    687.62161    808.07654 
     500          500   -2964.3845    10364.258    1.0267087    289.83018    331.97091    257.19888    217.58778            0   -85.796064            0            0            0    720.96151    776.67192 
     600          600   -98.268995    10364.258    1.0267087    299.26268    308.39414     253.4757    220.63507            0   -87.790208            0            0            0     694.7147    801.94865 
     700          700    2068.4883    10364.258    1.0267087    301.56938    313.77505    259.06609    212.16612            0   -96.915074            0            0            0    688.09218    808.13002 
     800          800    779.19793    10364.258    1.0267087    298.37126    322.39881     253.0906    212.28003            0   -90.035886            0            0            0    697.73355    799.55986 
     900          900   -2566.1449    10364.258    1.0267087    304.20652    312.12306    246.36343    221.70798            0   -98.890592            0            0            0    681.30388    815.19688 
    1000         1000    582.77095    10364.258    1.0267087    294.25185    331.17984     245.9613    222.81745            0   -91.141233            0            0            0    708.81735    788.52088 
    1100         1100    2788.5135    10364.258    1.0267087    304.55152    308.01065    235.51505    223.74804            0   -87.267818            0            0            0    680.00593     816.1214 
    1200         1200   -586.21383    10364.258    1.0267087     303.9737    331.29881    234.62177    209.55192            0   -93.684313            0            0            0    681.78818    814.57298 
    1300         1300    2791.5146    10364.258    1.0267087     310.5411     292.2905    254.95532    204.77413            0   -87.471187            0            0            0    664.54876    832.17195 
    1400         1400   -1982.1154    10364.258    1.0267087    301.21821    328.22058    256.72238    206.26665            0   -101.35778            0            0            0    689.85183    807.18895 
    1500         1500    1861.7994    10364.258    1.0267087    292.28757    319.39485    256.42305    222.91626            0   -85.062968            0            0            0    713.67119     783.2571 
    1600         1600   -3038.5833    10364.258    1.0267087    301.24497    332.67653    259.41982    202.74275            0   -104.96541            0            0            0    689.87369    807.26067 
    1700         1700    3494.8662    10364.258    1.0267087    305.34821    302.31878    264.07336    189.13995            0   -77.849273            0            0            0    677.68282    818.25632 
    1800         1800   -2270.9254    10364.258    1.0267087    295.19676    338.96368    268.54096    196.78588            0   -97.942517            0            0            0    706.34801    791.05298 
    1900         1900     881.1665    10364.258    1.0267087    298.23365    318.09095    261.92894    198.85314            0   -81.088907            0            0            0    697.78412    799.19109 
    2000         2000    75.266373    10364.258    1.0267087    307.68058    308.19351    268.73433    187.81265            0   -92.772811            0            0            0    671.96769    824.50648 
    2100         2100   -110.93494    10364.258    1.0267087    299.19378    329.14698    241.62042    207.87737            0   -83.520824            0            0            0    695.12395    801.76399 
    2200         2200    1427.4687    10364.258    1.0267087     299.7373    305.91607    261.16371    211.57906            0   -85.283341            0            0            0     693.3755    803.22051 
    2300         2300   -391.78503    10364.258    1.0267087     293.1079    331.44514    256.95541     211.8922            0   -88.636742            0            0            0      711.656    785.45537 
    2400         2400     1088.255    10364.258    1.0267087    301.27533    306.71807    262.92486    207.38438            0   -87.878158            0            0            0    689.14915    807.34203 
    2500         2500   -2433.3419    10364.258    1.0267087    303.83945    332.69241     241.3072     204.0028            0   -94.809134            0            0            0    683.19327    814.21322 
    2600         2600     2585.168    10364.258    1.0267087    287.67354    311.46395    279.79216    212.39472            0   -76.826611            0            0            0    726.82423    770.89266 
    2700         2700    538.36012    10364.258    1.0267087    293.10619    307.99539    270.55614    218.79102            0   -85.930788            0            0            0    711.41176    785.45078 
    2800         2800    1198.0598    10364.258    1.0267087    293.25199    316.94181    267.09629    216.74251            0   -89.563598            0            0            0    711.21702    785.84151 
    2900         2900   -245.29609    10364.258    1.0267087    299.77269    302.93859     253.2398    222.59147            0    -85.51532            0            0            0    693.25454    803.31533 
    3000         3000   -572.17945    10364.258    1.0267087    293.08232    321.44822     256.0146    206.56637            0   -71.728354            0            0            0    712.30083    785.38683 
    3100         3100    315.97045    10364.258    1.0267087    311.52699    288.96765    257.72521    201.46302            0   -87.661923            0            0            0    660.49395    834.81389 
    3200         3200    807.03542    10364.258    1.0267087    299.10138    317.47696    261.20116    209.90338            0   -93.125019            0            0            0    695.45648    801.51638 
    3300         3300   -460.96094    10364.258    1.0267087    295.11882    310.33507    262.34441    224.01554            0   -90.652481            0            0            0    706.04254    790.84414 
    3400         3400    437.32809    10364.258    1.0267087    297.89832    292.67896     259.9604    219.75101            0   -74.818741            0            0            0    697.57162     798.2925 
    3500         3500   -1067.1762    10364.258    1.0267087    291.70456    338.72717    244.21044    224.92855            0   -91.710799            0            0            0    716.15537    781.69479 
    3600         3600    3318.0237    10364.258    1.0267087    296.52976    322.76322     245.4431    218.52324            0   -84.313664            0            0            0    702.41589     794.6251 
    3700         3700   -1036.2725    10364.258    1.0267087    297.60533     313.8226    255.23701    208.50227            0   -78.492012            0            0            0    699.06987    797.50736 
    3800         3800   -485.74257    10364.258    1.0267087    290.63378    323.88892     251.5694    217.62271            0   -75.325745            0            0            0    717.75529    778.82536 
    3900         3900    1060.8075    10364.258    1.0267087    299.37075    323.68902    253.14614      207.707            0   -89.634063            0            0            0    694.90809    802.23823 
    4000         4000     1020.206    10364.258    1.0267087    301.45703    313.14538    257.36621      200.521            0   -83.115942            0            0            0    687.91666    807.82894 
    4100         4100   -377.99258    10364.258    1.0267087    307.84875    309.44925    243.65157    202.42278            0   -84.117427            0            0            0    671.40618    824.95715 
    4200         4200   -2011.8899    10364.258    1.0267087    292.36577    322.30262     268.9357    206.70055            0   -85.361545            0            0            0    712.57733    783.46664 
    4300         4300    3882.8662    10364.258    1.0267087    300.44054    312.18493    246.72697    212.07911            0   -79.967374            0            0            0    691.02364      805.105 
    4400         4400   -2323.4139    10364.258    1.0267087    296.31305    333.27983    257.38065    201.57686            0   -89.516281            0            0            0    702.72105    794.04436 
    4500         4500     938.5083    10364.258    1.0267087    297.97993     310.8854    258.17464    209.39741            0   -80.421352            0            0            0    698.03609    798.51118 
    4600         4600    51.087718    10364.258    1.0267087    298.80983    314.07034    266.43126    198.97665            0   -83.626097            0            0            0    695.85215     800.7351 
    4700         4700    346.95059    10364.258    1.0267087     303.0654    324.85197    254.12838    189.19612            0   -84.163593            0            0            0    684.01288    812.13896 
    4800         4800    1017.3053    10364.258    1.0267087    296.39239     318.4079    262.51272    194.93166            0   -73.480971            0            0            0    702.37131    794.25698 
    4900         4900   -1925.0035    10364.258    1.0267087    306.19389    313.12305    252.34239    199.20198            0   -89.173873            0            0            0    675.49354    820.52254 
    5000         5000    1684.2887    10364.258    1.0267087    306.04833    314.29511    233.71306    213.33443            0   -85.189555            0            0            0    676.15305    820.13248 
Loop time of 38.7382 on 1 procs for 5000 steps with 900 atoms

Performance: 11.152 ns/day, 2.152 hours/ns, 129.071 timesteps/s
100.0% CPU use with 1 MPI tasks x 1 OpenMP threads

MPI task timing breakdown:
Section |  min time  |  avg time  |  max time  |%varavg| %total
---------------------------------------------------------------
Pair    | 35.914     | 35.914     | 35.914     |   0.0 | 92.71
Bond    | 1.3185     | 1.3185     | 1.3185     |   0.0 |  3.40
Neigh   | 0.92201    | 0.92201    | 0.92201    |   0.0 |  2.38
Comm    | 0.24352    | 0.24352    | 0.24352    |   0.0 |  0.63
Output  | 0.011524   | 0.011524   | 0.011524   |   0.0 |  0.03
Modify  | 0.26469    | 0.26469    | 0.26469    |   0.0 |  0.68
Other   |            | 0.0639     |            |       |  0.16

Nlocal:            900 ave         900 max         900 min
Histogram: 1 0 0 0 0 0 0 0 0 0
Nghost:           9995 ave        9995 max        9995 min
Histogram: 1 0 0 0 0 0 0 0 0 0
Neighs:         446294 ave      446294 max      446294 min
Histogram: 1 0 0 0 0 0 0 0 0 0

Total # of neighbors = 446294
Ave neighs/atom = 495.88222
Ave special neighs/atom = 9.6666667
Neighbor list builds = 66
Dangerous builds = 0
unfix               1
unfix               2
undump              1
reset_timestep      0
#-------------------------------------------------------------------------------
# Substage 1.9: Minimization
# Initialize LAMMPS run.
#-------------------------------------------------------------------------------
min_style           cg
min_modify          dmax 0.05
thermo_style        custom step fmax fnorm press vol v_sysdensity v_sxx v_syy v_szz v_syz v_sxz v_sxy pe v_cella v_cellb v_cellc v_cellalpha v_cellbeta v_cellgamma
dump                minrun all custom 1000 1.9_minimization.lammpstrj id mol type q xs ys zs
thermo              100
minimize            0.0 0.0 1000 10000
WARNING: Using 'neigh_modify every 1 delay 0 check yes' setting during minimization (src/min.cpp:187)
  generated 1 of 1 mixed pair_coeff terms from arithmetic mixing rule
Per MPI rank memory allocation (min/avg/max) = 15.17 | 15.17 | 15.17 Mbytes
Step Fmax Fnorm Press Volume v_sysdensity v_sxx v_syy v_szz v_syz v_sxz v_sxy PotEng v_cella v_cellb v_cellc v_cellalpha v_cellbeta v_cellgamma 
       0    107.96603    1256.0491    1684.2887    10364.258    1.0267087    987.22106   -3526.3547   -2513.7324    1282.6916    4119.6279    1893.3121    676.15305    20.621423    20.621423    24.372547    1.5707963    1.5707963    1.5707963 
     100     2.695857    20.494475   -759.65814    10364.258    1.0267087    943.67201    791.20176    544.10065    205.04382    139.83892     64.77356   -77.923821    20.621423    20.621423    24.372547    1.5707963    1.5707963    1.5707963 
     200   0.85522623    7.6784502   -880.06909    10364.258    1.0267087    1030.4003    986.17841    623.62851    99.543263    103.95287    128.68015   -87.374482    20.621423    20.621423    24.372547    1.5707963    1.5707963    1.5707963 
     300   0.78266423    8.3139761   -581.40026    10364.258    1.0267087    665.88789    773.21272    305.10017    109.84218    145.01125    27.583678   -92.828789    20.621423    20.621423    24.372547    1.5707963    1.5707963    1.5707963 
     400   0.56575063     5.754579   -264.61567    10364.258    1.0267087    604.43034    482.52295   -293.10629    302.31329    143.94368    95.316972   -96.925878    20.621423    20.621423    24.372547    1.5707963    1.5707963    1.5707963 
     500   0.79465218     7.417391      85.4241    10364.258    1.0267087    227.05214    96.709483   -580.03393    131.86261    204.65095    240.23744     -100.504    20.621423    20.621423    24.372547    1.5707963    1.5707963    1.5707963 
     600    0.4745714    6.6276101    352.20786    10364.258    1.0267087    67.147014   -248.46625   -875.30434    181.51469     81.09476    269.66084   -103.90276    20.621423    20.621423    24.372547    1.5707963    1.5707963    1.5707963 
     700   0.74226201    7.7344854    461.42217    10364.258    1.0267087   -144.72832   -323.74546   -915.79272    63.114682    2.7114292    247.32231   -107.27083    20.621423    20.621423    24.372547    1.5707963    1.5707963    1.5707963 
     800     1.029053    9.1748356    530.50832    10364.258    1.0267087   -233.18385   -568.12536   -790.21573   -139.52762     124.8185    189.99647   -110.96029    20.621423    20.621423    24.372547    1.5707963    1.5707963    1.5707963 
     900    1.7848927    9.3803832     1017.863    10364.258    1.0267087   -742.60243   -985.30017   -1325.6864   -84.552016    181.03268    181.19275    -114.7256    20.621423    20.621423    24.372547    1.5707963    1.5707963    1.5707963 
    1000    1.2459852    9.6750521      1213.33    10364.258    1.0267087   -908.67996   -989.53991   -1741.7701    11.774958    94.813103    238.61301   -119.16412    20.621423    20.621423    24.372547    1.5707963    1.5707963    1.5707963 
Loop time of 14.6517 on 1 procs for 1000 steps with 900 atoms

100.0% CPU use with 1 MPI tasks x 1 OpenMP threads

Minimization stats:
  Stopping criterion = max iterations
  Energy initial, next-to-last, final = 
       676.15305139101   -119.12375648935  -119.164123793374
  Force two-norm initial, final = 1256.0491 9.6750521
  Force max component initial, final = 107.96603 1.2459852
  Final line search alpha, max atom move = 0.0044522834 0.0055474791
  Iterations, force evaluations = 1000 2000

MPI task timing breakdown:
Section |  min time  |  avg time  |  max time  |%varavg| %total
---------------------------------------------------------------
Pair    | 13.89      | 13.89      | 13.89      |   0.0 | 94.80
Bond    | 0.47907    | 0.47907    | 0.47907    |   0.0 |  3.27
Neigh   | 0.14878    | 0.14878    | 0.14878    |   0.0 |  1.02
Comm    | 0.084115   | 0.084115   | 0.084115   |   0.0 |  0.57
Output  | 0.002914   | 0.002914   | 0.002914   |   0.0 |  0.02
Modify  | 0          | 0          | 0          |   0.0 |  0.00
Other   |            | 0.04649    |            |       |  0.32

Nlocal:            900 ave         900 max         900 min
Histogram: 1 0 0 0 0 0 0 0 0 0
Nghost:          10010 ave       10010 max       10010 min
Histogram: 1 0 0 0 0 0 0 0 0 0
Neighs:         446775 ave      446775 max      446775 min
Histogram: 1 0 0 0 0 0 0 0 0 0

Total # of neighbors = 446775
Ave neighs/atom = 496.41667
Ave special neighs/atom = 9.6666667
Neighbor list builds = 11
Dangerous builds = 0
undump              minrun
Total wall time: 0:04:55
