ITEM: TIMESTEP
0
ITEM: NUMBER OF ATOMS
11100
ITEM: BOX BOUNDS pp pp pp
0.0000000000000000e+00 4.7144188000000000e+01
0.0000000000000000e+00 4.7144188000000000e+01
0.0000000000000000e+00 2.3572093930000001e+03
ITEM: ATOMS id mol type q xs ys zs
6674 77 2 0.0272666 0.670405 0.786809 0.0116126
6679 77 2 0.023319 0.650798 0.835771 0.0114544
6680 77 2 0.0266459 0.653691 0.820936 0.0125448
6600 77 5 -0.0441588 0.745245 0.791947 0.0116275
6601 77 1 -0.0273406 0.715261 0.785405 0.0113971
6602 77 1 -0.0466424 0.690536 0.793417 0.0118058
6603 77 1 -0.0442318 0.689 0.825713 0.0119489
6604 77 1 -0.0625099 0.673202 0.842032 0.0114725
6607 77 5 -0.0441675 0.764496 0.807928 0.0113504
6608 77 1 -0.0278568 0.759665 0.821231 0.0107653
6611 77 5 -0.050231 0.789682 0.812656 0.0115987
6670 77 2 0.0646706 0.834071 0.797811 0.0112424
6672 77 2 0.0316195 0.71094 0.795868 0.0109926
6673 77 2 0.0316195 0.713904 0.762609 0.0113069
6677 77 2 0.023319 0.682594 0.837823 0.0110553
6685 77 2 0.0315991 0.77974 0.821486 0.010529
6686 77 2 0.0315991 0.745477 0.808478 0.0105003
6692 77 2 0.0632579 0.80303 0.827572 0.0113729
6586 77 5 -0.0177038 0.89717 0.832688 0.0104926
6587 77 13 -0.264863 0.873388 0.818653 0.0106071
6588 77 5 0.0270319 0.870556 0.820528 0.0111692
6589 77 5 -0.034696 0.849372 0.810447 0.011475
6590 77 5 -0.00698445 0.847499 0.814965 0.0120416
6669 77 11 0.133651 0.86818 0.800569 0.0103945
6580 77 1 -0.0625213 0.996852 0.972108 0.0120474
6660 77 2 0.0233188 0.00551065 0.951825 0.0118992
6661 77 2 0.0233188 0.997382 0.98722 0.0116934
6605 77 1 -0.0535684 0.674451 0.831457 0.0125307
6681 77 2 0.0266459 0.670389 0.85429 0.0125722
6609 77 1 -0.0520905 0.748721 0.852058 0.0108119
6610 77 1 -0.0650665 0.7421 0.86511 0.0102267
6676 77 2 0.0299886 0.710616 0.834244 0.011975
6678 77 2 0.023319 0.67413 0.86499 0.0115469
6687 77 2 0.02671 0.764663 0.865143 0.0110278
6688 77 2 0.02671 0.729603 0.852656 0.011075
6689 77 2 0.0230475 0.761116 0.865403 0.00995827
6690 77 2 0.0230475 0.725574 0.852906 0.0100078
6691 77 2 0.0230475 0.734561 0.887 0.0102742
6574 77 1 -0.0272275 0.940454 0.86498 0.0120033
6575 77 1 -0.0492133 0.933128 0.895197 0.0117903
6576 77 1 -0.0529824 0.958912 0.909945 0.0115096
6577 77 1 -0.0530446 0.952908 0.940899 0.0113208
6578 77 1 -0.0507248 0.944147 0.962288 0.0117961
6583 77 5 -0.00500318 0.892864 0.837386 0.0119887
6584 77 5 0.00181861 0.891592 0.83462 0.0114122
6585 77 5 -0.0418391 0.908327 0.842523 0.0109739
6648 77 2 0.0316218 0.950792 0.851711 0.0116843
6651 77 2 0.026993 0.915398 0.894524 0.0114894
6652 77 2 0.0266664 0.977283 0.909378 0.011794
6653 77 2 0.0266664 0.965106 0.897669 0.0111339
6654 77 2 0.026665 0.935872 0.94043 0.0110036
6655 77 2 0.026665 0.971583 0.94905 0.0110961
6656 77 2 0.0269283 0.939803 0.982501 0.0115819
6667 77 2 0.0640326 0.92774 0.854626 0.0109716
6668 77 12 0.0753442 0.906966 0.836102 0.0100807
6682 77 2 0.0230462 0.694727 0.798958 0.013066
6549 77 5 -0.0545936 0.809831 0.788834 0.0149372
6550 77 5 -0.0438483 0.790721 0.772412 0.0146846
6556 77 5 -0.0359511 0.790234 0.771795 0.0141117
6557 77 5 -0.00577957 0.808882 0.787594 0.0137987
6558 77 5 -0.00577401 0.830213 0.80159 0.0140697
6559 77 5 -0.0357903 0.829408 0.803443 0.0146466
6595 77 5 -0.000419469 0.82684 0.80365 0.0129189
6596 77 5 -0.00508738 0.806232 0.790158 0.0132227
6597 77 5 -0.0312706 0.78237 0.780782 0.0129526
6598 77 5 -0.0136029 0.777633 0.787957 0.0124039
6599 77 5 -0.050567 0.752237 0.78271 0.0121484
6612 77 5 -0.00928036 0.79787 0.80184 0.0121089
6613 77 5 -0.00127595 0.824141 0.80661 0.0123463
6614 77 1 -0.0225351 0.759081 0.765383 0.0132796
6615 77 1 -0.0228675 0.769803 0.752149 0.0138144
6618 77 2 0.0316195 0.766842 0.734285 0.0149026
6619 77 2 0.0272566 0.731146 0.773553 0.014734
6671 77 2 0.063246 0.735682 0.771168 0.012365
6675 77 2 0.0272666 0.692108 0.780756 0.0121935
6693 77 2 0.0319854 0.75019 0.747673 0.0130358
6694 77 2 0.0319854 0.741782 0.780135 0.0133798
6695 77 2 0.0319735 0.780947 0.732383 0.0137097
6696 77 2 0.0319735 0.751258 0.746111 0.0140655
6560 77 1 -0.0117328 0.849415 0.823327 0.0149604
6563 77 1 -0.0200123 0.877814 0.821267 0.0146711
6564 77 5 -0.0347806 0.875633 0.823394 0.0140276
6568 77 1 -0.0468686 0.940952 0.820523 0.0144339
6569 77 1 -0.0556024 0.941339 0.789887 0.0141928
6570 77 1 -0.0653625 0.955608 0.768799 0.0146039
6591 77 5 -0.00098132 0.870679 0.826353 0.0123039
6592 77 5 -0.00103489 0.871584 0.826156 0.0128822
6593 77 5 -0.000421026 0.850232 0.814083 0.013187
6594 77 5 -0.00538869 0.851785 0.813544 0.0137632
6635 77 2 0.032262 0.887759 0.801114 0.0147919
6641 77 2 0.0272586 0.931749 0.820829 0.0148597
6642 77 2 0.0263938 0.952738 0.78966 0.0137868
6643 77 2 0.0263938 0.9197 0.782588 0.0141048
6644 77 2 0.0230365 0.944209 0.768049 0.0150096
6645 77 2 0.0230365 0.955667 0.747365 0.0144225
6646 77 2 0.0230365 0.977661 0.774955 0.0146879
6659 77 2 0.0233188 0.0109981 0.980203 0.0123798
6606 77 1 -0.0651295 0.69244 0.822077 0.0130473
6684 77 2 0.0230462 0.682286 0.828928 0.0134431
6683 77 2 0.0230462 0.713699 0.831527 0.0130313
6565 77 5 -0.0334119 0.897678 0.834519 0.0137269
6566 77 1 -0.0181406 0.926912 0.842488 0.0140204
6567 77 1 -0.0583836 0.927228 0.873328 0.0142513
6571 77 5 -0.0130367 0.89457 0.836938 0.013153
6572 77 5 -0.0501786 0.914438 0.849902 0.0128338
6573 77 5 -0.0388344 0.914604 0.850182 0.0122678
6579 77 1 -0.0445485 0.966224 0.968694 0.0122779
6581 77 1 -0.0535798 0.965456 0.947727 0.0127907
6582 77 1 -0.0651297 0.937592 0.948795 0.0131371
6628 77 2 0.0355821 0.841553 0.844991 0.0148924
6634 77 2 0.032262 0.890356 0.838663 0.0148424
6636 77 2 0.0349735 0.943843 0.841799 0.0137057
6637 77 2 0.0236581 0.913092 0.876217 0.0146154
6638 77 2 0.0236581 0.920539 0.888244 0.0139202
6639 77 2 0.0236581 0.9487 0.879344 0.0143848
6640 77 2 0.0272586 0.963055 0.827062 0.0145015
6647 77 2 0.0632587 0.93171 0.861372 0.0130277
6649 77 2 0.0316218 0.95749 0.867395 0.012317
6650 77 2 0.026993 0.925754 0.907637 0.0121539
6657 77 2 0.0269283 0.923713 0.956016 0.0119784
6658 77 2 0.0299771 0.960354 0.989506 0.0124511
6662 77 2 0.0266457 0.969388 0.925909 0.0126531
6663 77 2 0.0266457 0.982896 0.953068 0.0130802
6664 77 2 0.0230462 0.933198 0.97046 0.0132827
6665 77 2 0.0230462 0.919384 0.941412 0.0128887
6666 77 2 0.0230462 0.939305 0.935152 0.0135125
6551 77 1 -0.0273398 0.770302 0.755742 0.0150684
6552 77 1 -0.0468955 0.741203 0.770824 0.01515
6553 77 1 -0.0468219 0.742667 0.800293 0.0154488
6554 77 1 -0.0627638 0.713524 0.815346 0.0154158
6555 77 1 -0.0627638 0.752404 0.797993 0.0160758
6616 77 2 0.0629045 0.80908 0.789819 0.0153959
6617 77 2 0.0316195 0.779961 0.752056 0.0154853
6620 77 2 0.0272566 0.727136 0.756809 0.0153932
6621 77 2 0.0297155 0.757916 0.813697 0.0152214
6622 77 2 0.023309 0.706874 0.818089 0.014973
6623 77 2 0.023309 0.714561 0.83645 0.0156112
6624 77 2 0.023309 0.697133 0.803034 0.0156365
6625 77 2 0.023309 0.752732 0.818993 0.0162765
6626 77 2 0.023309 0.737981 0.7844 0.01632
6627 77 2 0.023309 0.773839 0.789159 0.0161098
6561 77 1 -0.0488921 0.851972 0.819085 0.0156192
6562 77 1 -0.0647885 0.873714 0.838735 0.0159155
6629 77 2 0.0270074 0.857407 0.796943 0.0157139
6630 77 2 0.0270074 0.831344 0.823403 0.0158166
6631 77 2 0.0230579 0.895558 0.833088 0.0158015
6633 77 2 0.0230579 0.871806 0.836836 0.0163778
6632 77 2 0.0230579 0.870035 0.860996 0.0158012
3953 51 1 -0.030462 0.128145 0.00656378 0.0204818
3991 51 2 0.0313241 0.127599 0.0298226 0.0205005
3992 51 2 0.0313241 0.11605 1.00089 0.020101
3994 51 2 0.0233729 0.0910719 0.0023526 0.0210311
3948 51 5 -0.0438758 0.254112 0.0114173 0.0209489
3949 51 5 -0.0508688 0.226557 0.0189431 0.020964
3950 51 5 -0.017823 0.206528 0.00378856 0.0206953
3951 51 5 -0.0509007 0.179088 0.0114841 0.020711
3962 51 1 -0.0310838 0.314588 0.000128104 0.0208565
3989 51 2 0.0632353 0.22042 0.0378172 0.0212
3990 51 2 0.0632348 0.173013 0.0304014 0.0209462
4001 51 2 0.0316204 0.279857 0.0488035 0.0210312
4005 51 2 0.0312043 0.315294 0.0171022 0.0205372
3977 51 2 0.0318856 0.40575 0.00724309 0.0209645
4006 51 2 0.0308733 0.359147 0.00522069 0.0207218
3935 51 1 -0.0521009 0.516789 0.00543568 0.0203501
3936 51 1 -0.0650667 0.536049 0.00177944 0.0198259
3970 51 2 0.0267098 0.529084 0.0150665 0.0206954
3971 51 2 0.0267098 0.499558 0.02022 0.020247
3974 51 2 0.0230475 0.544668 0.0223346 0.0196919
3952 51 5 -0.0447354 0.158848 0.996331 0.020444
3954 51 1 -0.0612842 0.113019 0.994677 0.0210115
3955 51 5 -0.0473037 0.166491 0.97277 0.0201506
3956 51 1 -0.0394794 0.144831 0.954327 0.0198424
3993 51 2 0.0233729 0.112561 0.971417 0.0210035
3996 51 2 0.0279783 0.136119 0.96547 0.0194728
3997 51 2 0.0279783 0.127147 0.948525 0.0201216
3998 51 2 0.0279783 0.154243 0.934472 0.0196889
3945 51 1 -0.0458099 0.302181 0.968422 0.0200149
3946 51 1 -0.0127738 0.293058 0.977828 0.020627
3947 51 5 -0.0407854 0.261929 0.987774 0.0206588
3957 51 5 -0.0511614 0.194051 0.965143 0.0201391
3958 51 5 -0.0178226 0.214101 0.980391 0.0204067
3959 51 5 -0.0505864 0.241542 0.97265 0.0203925
3986 51 2 0.0272997 0.293828 0.983442 0.0197007
3987 51 2 0.0272997 0.292625 0.947754 0.0199192
3988 51 2 0.0355356 0.294562 0.959166 0.0209041
3999 51 2 0.0632245 0.200246 0.946188 0.0199066
4000 51 2 0.0632461 0.247234 0.953509 0.0201621
3933 51 5 -0.0477653 0.485293 0.980953 0.0210703
3937 51 5 -0.0558185 0.457599 0.987394 0.021011
3941 51 1 -0.0498483 0.394569 0.948011 0.0210491
3942 51 1 -0.0498996 0.38197 0.95441 0.0204548
3943 51 1 -0.0382612 0.350086 0.961678 0.0205077
3944 51 1 -0.0495821 0.334875 0.965853 0.0199329
3963 51 1 -0.0348762 0.3458 0.98819 0.0208934
3968 51 2 0.0315887 0.491903 0.967288 0.0202067
3975 51 2 0.0628607 0.44885 0.989747 0.0205865
3979 51 2 0.0269607 0.417269 0.943292 0.0210113
3980 51 2 0.0269607 0.384684 0.928554 0.0212115
3981 51 2 0.0269595 0.384744 0.935789 0.0201809
3982 51 2 0.0269595 0.393453 0.972005 0.0202542
3983 51 2 0.030567 0.340084 0.943319 0.0207136
3984 51 2 0.026971 0.34302 0.985087 0.0197269
3985 51 2 0.026971 0.339525 0.948071 0.0196471
3934 51 1 -0.0281429 0.504119 0.976941 0.020553
3969 51 2 0.0315887 0.521382 0.962093 0.0206506
3972 51 2 0.0230475 0.553914 0.98764 0.0199212
3973 51 2 0.0230475 0.524121 0.992766 0.0194691
3995 51 2 0.0233729 0.123932 0.00141078 0.0214
3960 51 1 -0.0272874 0.275256 0.0295687 0.021277
3961 51 1 -0.0455079 0.303282 0.0140775 0.0214036
4002 51 2 0.0316204 0.265952 0.0366982 0.0216793
4004 51 2 0.0273093 0.318624 0.0295169 0.0215685
3976 51 2 0.0318856 0.40364 0.015141 0.0216883
4003 51 2 0.0273093 0.299856 0.997957 0.0217326
3931 51 5 -0.0617268 0.479156 0.981554 0.0220529
3932 51 5 -0.0590324 0.495853 0.97805 0.0215977
3938 51 5 -0.0474793 0.440478 0.990946 0.0214637
3939 51 1 -0.0250199 0.409266 0.998263 0.0213878
3940 51 1 -0.0370822 0.389342 0.972303 0.0214868
3964 51 1 -0.0467239 0.357476 0.981428 0.0214981
3965 51 5 -0.0590217 0.451651 0.987976 0.0219858
3966 51 2 0.0622964 0.487929 0.979188 0.0224769
3978 51 2 0.0306207 0.394372 0.963853 0.021909
4007 51 2 0.0272551 0.355313 -0.000184671 0.0217796
4008 51 2 0.0272551 0.344784 0.964324 0.0216864
4009 51 2 0.0625687 0.438341 0.990767 0.0223585
3967 51 2 0.0625685 0.518128 0.972856 0.0216583
2023 25 5 -0.0359661 0.656399 0.631949 0.0359484
2024 25 5 -0.00201743 0.630781 0.644199 0.0360167
2027 25 5 0.0200913 0.583632 0.650313 0.0360112
2028 25 5 -0.0476079 0.556717 0.642336 0.0359164
2029 25 5 -0.0611052 0.551521 0.616416 0.035703
2030 25 5 -0.061577 0.573147 0.598726 0.0355864
2031 25 5 -0.0532054 0.6001 0.606804 0.0356819
2032 25 5 -0.00323737 0.605339 0.632809 0.0358959
2040 25 2 0.06429 0.658856 0.610737 0.0357753
2041 25 2 0.0634964 0.539275 0.656661 0.0360112
2042 25 2 0.0623178 0.529801 0.609727 0.0356246
2043 25 2 0.0622998 0.568813 0.577777 0.035414
2044 25 2 0.0629745 0.617192 0.592139 0.0355845
2022 25 5 0.0523007 0.679337 0.64715 0.0360905
2034 25 3 0.0861927 0.714561 0.637819 0.0360329
2025 25 5 0.0207936 0.628966 0.670729 0.0362263
2026 25 4 -0.0887803 0.594345 0.682696 0.0362838
7447 84 1 -0.0653838 0.40365 0.454396 0.0393484
7491 84 2 0.0230362 0.414223 0.454583 0.0389338
7492 84 2 0.0230362 0.383392 0.465662 0.0393059
2035 25 6 -0.249049 0.724985 0.608221 0.0361475
2038 25 2 0.0635893 0.769005 0.65746 0.036566
2033 25 5 -0.0384494 0.652204 0.68546 0.03638
2045 25 2 0.0641984 0.649725 0.706462 0.0365629
2015 25 5 -0.061574 0.733678 0.714982 0.0369763
2016 25 5 -0.0610139 0.75546 0.696764 0.0369077
2017 25 5 -0.04503 0.751544 0.672186 0.0366297
2018 25 5 0.0516018 0.725702 0.666688 0.036422
2019 25 5 -0.000573708 0.703334 0.684103 0.0364971
2020 25 5 -0.0531113 0.70763 0.708723 0.0367759
2021 25 5 0.000556397 0.677973 0.673443 0.0363159
2036 25 2 0.0622999 0.737061 0.734765 0.0372035
2037 25 2 0.0623193 0.776273 0.70201 0.0370764
2039 25 2 0.062976 0.690378 0.723491 0.0368533
7441 84 5 -0.0568599 0.471522 0.442164 0.0409828
7442 84 5 -0.0472683 0.445892 0.435128 0.041183
7443 84 1 -0.0278661 0.423313 0.422641 0.040794
7444 84 1 -0.0492462 0.398744 0.443686 0.0406724
7445 84 1 -0.0532558 0.408099 0.471935 0.0403876
7446 84 1 -0.0561643 0.422644 0.468681 0.0398
7448 84 5 -0.0493176 0.440495 0.439518 0.0417363
7449 84 5 0.00365678 0.460013 0.450785 0.0420951
7455 84 5 0.0707761 0.486025 0.458056 0.0418801
7456 84 5 -0.0355198 0.491091 0.453429 0.0413256
7482 84 2 0.0626477 0.47662 0.43888 0.0405377
7483 84 2 0.0315993 0.414437 0.403499 0.0409908
7484 84 2 0.0315993 0.432718 0.415562 0.0403924
7485 84 2 0.0269926 0.388021 0.44873 0.0410731
7486 84 2 0.0269926 0.382779 0.433144 0.0404075
7487 84 2 0.0266561 0.389377 0.485563 0.0403395
7488 84 2 0.0266561 0.422512 0.483326 0.0406736
7489 84 2 0.0263725 0.442468 0.456707 0.0398422
7490 84 2 0.0263725 0.428625 0.489836 0.0396469
7493 84 2 0.0230362 0.399227 0.432226 0.0394586
7494 84 2 0.0632931 0.419409 0.43388 0.0418793
7454 84 10 -0.252521 0.505722 0.469141 0.0421909
7498 84 2 0.0645937 0.511638 0.458994 0.0411468
7450 84 5 -0.0363772 0.454673 0.455311 0.0426599
7451 84 1 -0.0387474 0.427317 0.446094 0.0429582
7452 84 5 -0.0191584 0.475755 0.467431 0.0429672
7460 84 1 -0.00802904 0.477577 0.476338 0.0435903
7461 84 1 -0.0451963 0.45193 0.484147 0.0439693
7462 84 1 -0.0464411 0.462343 0.491362 0.0445833
7495 84 2 0.0280025 0.43231 0.435564 0.0433601
7496 84 2 0.0280025 0.41355 0.46435 0.0430448
7497 84 2 0.0280025 0.414801 0.430273 0.0427301
7504 84 2 0.0358946 0.487244 0.457949 0.0437989
7505 84 2 0.0273218 0.43745 0.46616 0.0440113
7507 84 2 0.0272671 0.470136 0.471664 0.0447763
7508 84 2 0.0272671 0.443436 0.497407 0.0448258
7453 84 5 0.0454143 0.500441 0.473635 0.0427175
7457 84 1 -0.00380298 0.520842 0.488234 0.0431219
7466 84 1 -0.0490488 0.530663 0.484197 0.0444042
7467 84 1 -0.0490723 0.54296 0.489478 0.0449895
7500 84 2 0.0338271 0.535313 0.472187 0.0432919
7513 84 2 0.0269915 0.548911 0.481941 0.0441203
7514 84 2 0.0269915 0.519754 0.463694 0.0444132
7515 84 2 0.0269911 0.556255 0.470863 0.0450693
7458 84 1 -0.0167121 0.499621 0.501019 0.0435652
7459 84 1 -0.0583923 0.487715 0.528374 0.0432567
7463 84 1 -0.0235113 0.486204 0.515006 0.0446399
7464 84 1 -0.0588245 0.471679 0.54421 0.0444835
7480 84 1 -0.0235456 0.497943 0.517268 0.0452953
7502 84 2 0.023648 0.465193 0.532156 0.0433313
7503 84 2 0.023648 0.489452 0.527109 0.0427931
7506 84 2 0.0273218 0.439396 0.501448 0.0437873
7509 84 2 0.0236344 0.46039 0.553918 0.044839
7510 84 2 0.0236344 0.487302 0.559841 0.0443376
7511 84 2 0.0236344 0.455305 0.542204 0.0441594
7537 84 2 0.0272559 0.498981 0.564329 0.0453387
7465 84 1 -0.029101 0.510893 0.508193 0.0441887
7479 84 1 -0.0467417 0.513563 0.546454 0.0453946
7499 84 2 0.0338271 0.533729 0.504639 0.0429145
7501 84 2 0.023648 0.499627 0.547362 0.0433814
7512 84 2 0.0314489 0.524391 0.527088 0.0441548
7516 84 2 0.0269911 0.557056 0.507953 0.0449728
7536 84 2 0.0272559 0.530239 0.549276 0.0450752
3147 42 2 0.0266551 0.0169383 0.288266 0.0483184
3097 42 1 -0.0532968 0.00619215 0.284493 0.0487245
3098 42 1 -0.0561653 0.979241 0.266515 0.0486158
3099 42 1 -0.0653838 0.985826 0.239377 0.0482744
3148 42 2 0.0263725 0.963533 0.279206 0.0483841
3150 42 2 0.0230362 0.00110013 0.225971 0.0485014
3151 42 2 0.0230362 0.96642 0.226983 0.0482068
3152 42 2 0.0230362 0.994765 0.244654 0.0478577
7520 84 2 0.0236244 0.494577 0.475404 0.0463818
7540 84 2 0.0236344 0.463183 0.49438 0.0457424
7468 84 1 -0.0297782 0.520093 0.492742 0.0454627
7469 84 1 -0.0258813 0.534658 0.495576 0.0460836
7470 84 1 -0.0590725 0.51234 0.487621 0.0465553
7471 84 1 -0.0472728 0.560547 0.47469 0.0461593
7472 84 1 -0.0522502 0.577072 0.477217 0.0467286
7517 84 2 0.0314249 0.508404 0.472606 0.0454596
7518 84 2 0.0236244 0.52113 0.47386 0.0468858
7521 84 2 0.0272353 0.576657 0.478936 0.0458355
7522 84 2 0.0272353 0.553655 0.452668 0.0460965
7523 84 2 0.0266959 0.572864 0.458391 0.0469892
7524 84 2 0.0266959 0.599897 0.476772 0.0466367
7525 84 2 0.0272143 0.551954 0.499449 0.047354
7481 84 1 -0.0588251 0.471421 0.516057 0.045705
7538 84 2 0.0236344 0.475895 0.523563 0.0461331
7539 84 2 0.0236344 0.453762 0.529304 0.0455626
7473 84 1 -0.0478231 0.570359 0.504004 0.0470848
7474 84 1 -0.0320676 0.564642 0.53175 0.046738
7475 84 1 -0.0596245 0.54896 0.552666 0.0471459
7476 84 1 -0.0596245 0.593837 0.545469 0.0465907
7477 84 1 -0.0305631 0.547754 0.526189 0.0461591
7478 84 1 -0.0488588 0.52692 0.550316 0.0459905
7519 84 2 0.0236244 0.503871 0.506392 0.0467705
7526 84 2 0.0272143 0.587716 0.507492 0.0473874
7527 84 2 0.0236035 0.560628 0.554943 0.0475464
7528 84 2 0.0236035 0.527616 0.54501 0.0472505
7529 84 2 0.0236035 0.547035 0.573975 0.0469629
7530 84 2 0.0236035 0.605907 0.550522 0.0469759
7531 84 2 0.0236035 0.590985 0.565252 0.0463518
7532 84 2 0.0236035 0.60685 0.531121 0.0463322
7533 84 2 0.0313939 0.564008 0.527343 0.0458269
7534 84 2 0.0270005 0.51012 0.552611 0.046308
7535 84 2 0.0270005 0.538433 0.570548 0.0459889
3079 42 1 -0.0624572 0.0955247 0.34077 0.0510595
3126 42 2 0.0233203 0.114567 0.328172 0.0511501
3127 42 2 0.0233203 0.0961514 0.347043 0.0506113
3128 42 2 0.0233203 0.0770646 0.32696 0.0511231
3145 42 2 0.0269504 0.0210666 0.32466 0.0490343
3146 42 2 0.0266551 0.0210588 0.272296 0.0489872
3153 42 2 0.0319185 0.021955 0.331492 0.0500231
3083 42 5 -0.036327 0.986171 0.334835 0.050609
3084 42 5 -0.0404419 0.960834 0.322151 0.0506927
3085 42 5 -0.0499135 0.951333 0.319152 0.0512254
3090 42 5 -0.0023204 0.990126 0.342355 0.0516062
3091 42 1 -0.0158708 0.941886 0.310893 0.0502037
3092 42 1 -0.049215 0.911389 0.324171 0.0502176
3093 42 1 -0.0648001 0.890951 0.31184 0.0497667
3094 42 1 -0.0431974 0.954898 0.315218 0.0496057
3095 42 1 -0.036763 0.987247 0.311912 0.0496151
3096 42 1 -0.0501212 0.000565225 0.31369 0.0490091
3100 42 1 -0.0241165 0.999029 0.335318 0.0500072
3133 42 2 0.0632695 0.93153 0.307911 0.0512551
3135 42 2 0.0352381 0.939669 0.28792 0.0502668
3136 42 2 0.0269959 0.901422 0.320905 0.0506322
3138 42 2 0.0230578 0.889921 0.28864 0.049798
3139 42 2 0.0230578 0.869472 0.32022 0.0498301
3140 42 2 0.0230578 0.897589 0.317508 0.0493353
3141 42 2 0.0275745 0.945349 0.300119 0.0493085
3143 42 2 0.0306323 0.992674 0.291288 0.0498028
3149 42 2 0.0263725 0.969642 0.260338 0.0490213
3076 42 5 -0.0465067 0.0398614 0.36999 0.0514231
3077 42 1 -0.0255232 0.0676716 0.385777 0.0513241
3078 42 1 -0.0430785 0.0941262 0.36715 0.0514511
3080 42 1 -0.0624572 0.121634 0.384885 0.0513992
3081 42 5 -0.050801 0.0250988 0.359522 0.0509901
3123 42 2 0.0318655 0.0682379 0.404717 0.0515949
3124 42 2 0.0318655 0.0688276 0.393645 0.0508862
3130 42 2 0.0233203 0.124343 0.392958 0.0509659
3132 42 2 0.0632368 0.0339281 0.363371 0.0505725
3082 42 5 -0.013377 1.00042 0.345442 0.0510655
3137 42 2 0.0269959 0.912905 0.347225 0.0501599
3142 42 2 0.0275745 0.949666 0.33651 0.0494479
3144 42 2 0.0269504 0.987256 0.326818 0.0487314
3154 42 2 0.0319185 0.995781 0.356255 0.0498137
3116 42 2 0.0267101 0.030755 0.327558 0.0544094
3117 42 2 0.0267101 0.0550291 0.341762 0.0539176
3058 42 7 -0.360914 0.893761 0.29511 0.0529787
3059 42 9 0.0724877 0.918795 0.308191 0.0528768
3060 42 5 -0.023852 0.934994 0.318792 0.0533226
3061 42 5 -0.0110768 0.96002 0.332029 0.0532337
3062 42 5 -0.0367896 0.975076 0.341903 0.0536883
3063 42 1 -0.0267533 0.965128 0.337487 0.0543082
3086 42 5 -0.00887252 0.965154 0.328727 0.0516926
3087 42 5 -0.00665754 0.954815 0.325263 0.0522322
3088 42 5 -0.0235138 0.929778 0.311866 0.0523322
3089 42 5 -0.0021507 0.969773 0.335428 0.0526872
3101 42 8 0.218254 0.891061 0.295361 0.0533879
3102 42 2 0.0657127 0.92581 0.315965 0.05374
3103 42 2 0.0316415 0.955995 0.316346 0.0543713
3104 42 2 0.0316415 0.98308 0.337089 0.0546015
3134 42 2 0.0657247 0.916268 0.30314 0.0520064
3069 42 1 -0.0278351 0.0182259 0.368623 0.0540627
3070 42 1 -0.0520902 0.0409391 0.347309 0.0542713
3072 42 5 -0.0501981 0.00873244 0.359048 0.0530589
3074 42 5 -0.00897862 0.00495574 0.352757 0.0520576
3075 42 5 -0.050463 0.0297624 0.366433 0.0519466
3114 42 2 0.0315996 0.0290563 0.387687 0.0539056
3121 42 2 0.0632587 0.0286092 0.370261 0.0530276
3122 42 2 0.0632487 0.043117 0.375531 0.052271
3125 42 2 0.0300426 0.0926426 0.359657 0.0518911
3129 42 2 0.0233203 0.140288 0.372024 0.051506
3131 42 2 0.0233203 0.121136 0.403077 0.0516895
3064 42 1 -0.0468739 0.943797 0.360739 0.0544971
3068 42 5 -0.0435681 0.999642 0.355815 0.0535918
3073 42 5 -0.0089661 0.994749 0.349188 0.0525971
3105 42 2 0.027257 0.953993 0.381624 0.0544701
3106 42 2 0.027257 0.926073 0.361196 0.0541955
3115 42 2 0.0315996 0.00553734 0.376311 0.0544208
3120 42 2 0.0230475 0.0747805 0.343848 0.0548998
3107 42 2 0.0297156 0.922735 0.334856 0.0551295
3110 42 2 0.0233091 0.970991 0.342039 0.0555272
3071 42 1 -0.0650666 0.0587876 0.359332 0.0547641
3118 42 2 0.0230475 0.0452765 0.364271 0.05513
3119 42 2 0.0230475 0.0698134 0.37878 0.0546345
9392 103 1 -0.0466322 0.107698 0.474647 0.0565407
9393 103 1 -0.0439794 0.096129 0.476522 0.0559212
9395 103 1 -0.0509664 0.0633136 0.472725 0.0558723
9396 103 1 -0.0559214 0.0512834 0.444975 0.0561344
9397 103 1 -0.065374 0.0628933 0.417748 0.0558531
9443 103 2 0.0316197 0.0714307 0.491454 0.0570008
9444 103 2 0.0272668 0.1307 0.477967 0.0565296
9445 103 2 0.0272668 0.104713 0.453021 0.056702
9446 103 2 0.0299986 0.106137 0.45924 0.0556821
9448 103 2 0.0233192 0.0997194 0.504148 0.0551769
9450 103 2 0.0269185 0.0573513 0.473389 0.0554222
9451 103 2 0.0269185 0.0526377 0.490885 0.0560703
9452 103 2 0.0263823 0.0281234 0.445179 0.0560878
9453 103 2 0.0263823 0.0554751 0.444328 0.0565919
9454 103 2 0.0230364 0.0520702 0.398999 0.0560239
9455 103 2 0.0230364 0.0594297 0.418246 0.0553929
9456 103 2 0.0230364 0.0856781 0.415228 0.0559326
3065 42 1 -0.0468218 0.931788 0.356278 0.0551056
3066 42 1 -0.0627639 0.955024 0.358823 0.0555689
3067 42 1 -0.0627639 0.907516 0.377595 0.0552241
3108 42 2 0.0233091 0.945684 0.356875 0.0559936
3109 42 2 0.0233091 0.965839 0.3794 0.0555437
3111 42 2 0.0233091 0.91528 0.399526 0.0552066
3112 42 2 0.0233091 0.890469 0.375296 0.0549104
3113 42 2 0.0233091 0.898311 0.373993 0.0556456
9390 103 5 -0.0438595 0.107766 0.493821 0.0575552
9391 103 1 -0.0273298 0.0942002 0.495915 0.0569655
9394 103 1 -0.0624999 0.105559 0.504402 0.0556275
9430 103 1 -0.0200349 0.142227 0.531822 0.0573153
9442 103 2 0.0316197 0.0952906 0.517591 0.0567994
9447 103 2 0.0233192 0.128649 0.507058 0.0556537
9449 103 2 0.0233192 0.0955268 0.523003 0.0558222
9481 103 2 0.0322617 0.127771 0.550068 0.0573023
9482 103 2 0.0322617 0.143037 0.523565 0.0568809
9426 103 1 -0.0114501 0.171836 0.54272 0.0574728
9427 103 1 -0.0462908 0.196403 0.528404 0.0571292
9428 103 1 -0.0555808 0.205618 0.498076 0.0573167
9429 103 1 -0.0653622 0.186491 0.473941 0.0570943
9474 103 2 0.0272803 0.215124 0.542102 0.0571686
9475 103 2 0.0272803 0.191287 0.528388 0.0566749
9476 103 2 0.0263942 0.207426 0.496687 0.0577798
9477 103 2 0.0263942 0.227059 0.494335 0.0571516
9478 103 2 0.0230365 0.165848 0.473828 0.0573059
9479 103 2 0.0230365 0.196472 0.453313 0.0571753
9480 103 2 0.0230365 0.183129 0.475887 0.0566354
9389 103 5 -0.0551921 0.0964532 0.475198 0.0579185
9400 103 5 -0.0139063 0.127592 0.488805 0.0586312
9401 103 5 -0.042944 0.105694 0.472317 0.0584521
9402 103 1 -0.0391467 0.0905513 0.450548 0.0588275
9403 103 5 -0.0455317 0.136825 0.487085 0.0591742
9406 103 5 -0.0499139 0.156511 0.485506 0.0603447
9441 103 2 0.0628826 0.0787779 0.462194 0.0577751
9457 103 2 0.0279901 0.073677 0.439288 0.0585993
9458 103 2 0.0279901 0.105424 0.434395 0.058982
9459 103 2 0.0279901 0.0806284 0.460785 0.0591955
9460 103 2 0.0636232 0.126287 0.472284 0.0594512
9461 103 2 0.0632692 0.139382 0.471296 0.0602444
9398 103 5 -0.0356969 0.12985 0.510135 0.0577277
9399 103 5 -0.00641506 0.140172 0.50739 0.0582656
9404 103 5 -0.00856018 0.158074 0.503262 0.0593812
9421 103 5 -0.00540976 0.162397 0.523324 0.0584531
9473 103 2 0.0355927 0.172068 0.565167 0.0573479
9405 103 5 -0.00890328 0.167521 0.502432 0.0599373
9411 103 5 -0.0325094 0.233116 0.55531 0.0603539
9416 103 5 0.0239986 0.222267 0.554202 0.059828
9417 103 4 -0.0884535 0.232174 0.573324 0.0592248
9418 103 5 0.0210801 0.205629 0.555427 0.0588594
9419 103 5 -0.0434257 0.198551 0.557315 0.0583137
9420 103 5 -0.0349049 0.177168 0.541267 0.0581051
9422 103 5 -0.000511761 0.170491 0.52119 0.0590058
9423 103 5 0.00590818 0.191789 0.537436 0.0591887
9424 103 5 0.00614557 0.200866 0.536708 0.0597171
9425 103 5 -0.00113905 0.189197 0.519542 0.0601017
9464 103 2 0.0319065 0.269383 0.581644 0.0601321
9472 103 2 0.063823 0.210386 0.571533 0.0580379
9438 103 1 -0.0158707 0.152984 0.466135 0.0613504
9439 103 1 -0.0492149 0.128339 0.445808 0.0611744
9440 103 1 -0.0648001 0.0995826 0.461178 0.0610919
9490 103 2 0.0263725 0.167924 0.44946 0.0630662
9491 103 2 0.0263725 0.157853 0.478828 0.0626459
9496 103 2 0.0275744 0.168384 0.439231 0.0620354
9497 103 2 0.0352379 0.143889 0.480276 0.0616726
9498 103 2 0.0269958 0.134044 0.433714 0.0607934
9499 103 2 0.0269958 0.125258 0.429971 0.0615102
9500 103 2 0.0230578 0.10084 0.478039 0.0607728
9501 103 2 0.0230578 0.0832474 0.446059 0.0609561
9502 103 2 0.0230578 0.0925389 0.470798 0.0614917
9407 103 5 -0.0404416 0.166036 0.485397 0.0608851
9431 103 1 -0.0241165 0.198984 0.499424 0.0616468
9432 103 1 -0.0367628 0.203452 0.467544 0.0617905
9433 103 1 -0.0501211 0.215837 0.46216 0.0623966
9434 103 1 -0.0532967 0.202409 0.479045 0.0628971
9435 103 1 -0.0561651 0.170742 0.472401 0.0630108
9437 103 1 -0.0431974 0.176885 0.449115 0.0616502
9485 103 2 0.0306322 0.219955 0.460219 0.061496
9486 103 2 0.0269503 0.215077 0.439376 0.0624914
9487 103 2 0.0269503 0.238461 0.46764 0.0623852
9488 103 2 0.0266551 0.214527 0.474065 0.0632821
9495 103 2 0.0275744 0.183495 0.431525 0.061375
9408 103 5 -0.0363255 0.188025 0.50245 0.0610335
9409 103 5 -0.0132948 0.199735 0.519932 0.0606377
9410 103 5 -0.0496695 0.221588 0.538081 0.0607504
9412 103 1 -0.0243985 0.257492 0.575096 0.0605101
9413 103 1 -0.0430374 0.247358 0.601811 0.0608393
9414 103 1 -0.0624565 0.22663 0.620102 0.0604835
9415 103 1 -0.0624565 0.273032 0.619768 0.0610356
9462 103 2 0.0632774 0.230682 0.539756 0.0611704
9463 103 2 0.0319065 0.272738 0.563437 0.060774
9465 103 2 0.0300432 0.236042 0.594729 0.0612209
9466 103 2 0.0233202 0.236654 0.627218 0.0600882
9467 103 2 0.0233202 0.207431 0.608133 0.0603745
9468 103 2 0.0233202 0.219989 0.638952 0.0607222
9469 103 2 0.0233202 0.265985 0.638162 0.0612837
9470 103 2 0.0233202 0.287288 0.607167 0.0613039
9471 103 2 0.0233202 0.285222 0.627557 0.0606708
9483 103 2 0.0319183 0.219174 0.509961 0.06173
9484 103 2 0.0319183 0.18359 0.509069 0.0619377
9489 103 2 0.0266551 0.205125 0.501897 0.0628278
9492 103 2 0.0230362 0.161363 0.510935 0.0634928
9436 103 1 -0.0653838 0.159531 0.487863 0.0635423
9493 103 2 0.0230362 0.137112 0.482721 0.0636132
1048 11 2 0.0233189 0.307158 0.485533 0.0664787
9494 103 2 0.0230362 0.171492 0.481541 0.0639211
1049 11 2 0.0233189 0.34443 0.4902 0.0664962
1026 11 2 0.0233189 0.509083 0.495904 0.0666061
994 11 1 -0.062511 0.324109 0.500235 0.0666024
1047 11 2 0.0233189 0.321927 0.519441 0.0663436
982 11 1 -0.0442854 0.495477 0.538016 0.0663277
986 11 1 -0.0530456 0.431398 0.55946 0.0664837
987 11 1 -0.0507145 0.407576 0.582075 0.0664263
1022 11 2 0.0269285 0.487662 0.575428 0.065815
1024 11 2 0.0299871 0.479298 0.527174 0.0660728
1030 11 2 0.0266649 0.465544 0.589315 0.0666723
1032 11 2 0.0266649 0.422743 0.53978 0.0666617
1033 11 2 0.0266649 0.438688 0.55421 0.0660546
1034 11 2 0.0269283 0.416435 0.60074 0.0662114
1035 11 2 0.0269283 0.391183 0.573745 0.0661407
1039 11 2 0.0233189 0.353545 0.605946 0.0665985
977 11 1 -0.0442852 0.581172 0.598182 0.0663831
978 11 1 -0.062511 0.579961 0.625437 0.0660152
979 11 1 -0.0507047 0.559158 0.575521 0.0661821
980 11 1 -0.0528017 0.527462 0.584583 0.0662308
981 11 1 -0.0507047 0.506263 0.563296 0.0659542
983 11 1 -0.062511 0.51866 0.515398 0.0664387
1015 11 2 0.0233189 0.560497 0.637556 0.0660946
1016 11 2 0.0233189 0.580869 0.620219 0.0655619
1017 11 2 0.0233189 0.598016 0.639324 0.0661112
1019 11 2 0.0269285 0.563704 0.570408 0.065737
1020 11 2 0.0266748 0.521699 0.588737 0.066673
1021 11 2 0.0266748 0.524783 0.604838 0.0660087
1023 11 2 0.0269285 0.515517 0.554903 0.0655612
1025 11 2 0.0233189 0.52987 0.50992 0.0660457
1027 11 2 0.0233189 0.534228 0.52269 0.066751
1046 11 2 0.0299871 0.324206 0.486136 0.0674592
993 11 1 -0.0442852 0.322518 0.506811 0.0672473
995 11 1 -0.0507048 0.292824 0.51847 0.0674299
996 11 1 -0.0528118 0.284437 0.54869 0.067218
997 11 1 -0.0509681 0.292858 0.573923 0.0676123
998 11 1 -0.047138 0.279984 0.573597 0.068222
999 11 1 -0.0627751 0.24711 0.572834 0.0682194
1000 11 1 -0.0627751 0.290698 0.599561 0.0685625
1050 11 2 0.0269285 0.290979 0.517218 0.0678925
1051 11 2 0.0269285 0.276807 0.503588 0.0672697
1052 11 2 0.0266746 0.261375 0.549176 0.0671575
1053 11 2 0.0266746 0.293246 0.552349 0.0667939
1054 11 2 0.0269183 0.286413 0.59366 0.0674014
1055 11 2 0.0269183 0.315967 0.575092 0.0676488
1056 11 2 0.0297039 0.287559 0.554678 0.068446