ITEM: TIMESTEP
0
ITEM: NUMBER OF ATOMS
2550
ITEM: BOX BOUNDS pp pp pp
3.7691944305974090e-01 2.9897488556940253e+01
3.7691944305974090e-01 2.9897488556940253e+01
1.3466155434781956e+02 1.6808252265218044e+02
ITEM: ATOMS id mol type q xs ys zs
246 5 1 0 0.101099 0.0297583 0.0272238
225 5 3 0 0.09067 0.994471 0.0225782
2126 42 1 0 0.241077 0.217077 0.0376032
1232 25 5 0 0.513218 0.0071395 0.00256397
535 11 3 0 0.308352 0.323496 0.0328168
1422 28 1 0 0.9105 0.996374 -0.00148801
561 11 1 0 0.275152 0.307482 0.0285062
1669 33 1 0 0.00447913 0.0883336 0.0649114
247 5 1 0 0.118566 0.973114 0.0333257
2097 42 5 0 0.342274 0.0971312 0.0197425
2101 42 5 0 0.266126 0.202341 0.0576299
2100 42 5 0 0.291556 0.167239 0.0459889
299 6 1 0 0.095114 0.828044 0.00784774
2102 42 5 0 0.271628 0.220066 0.0938243
518 11 5 0 0.435005 0.187345 0.0513682
519 11 5 0 0.405214 0.221323 0.0481124
2106 42 5 0 0.347949 0.113311 0.0575945
517 11 5 0 0.462135 0.184608 0.0830476
543 11 1 0 0.486284 0.156963 0.0847097
2107 42 3 0 0.382721 0.0917777 0.0847482
2121 42 1 0 0.34657 0.00563583 0.0428257
2105 42 5 0 0.322908 0.148958 0.0711558
2129 42 1 0 0.416482 0.0931548 0.0711559
2128 42 1 0 0.375062 0.0558133 0.0893345
544 11 1 0 0.437573 0.161774 0.0280613
1398 28 3 0 0.889869 0.979978 0.0597103
915 18 1 0 0.778136 0.859391 0.0105747
1400 28 3 0 0.902862 0.923206 0.00173087
691 14 2 0 0.877619 0.793129 0.0605615
1252 25 2 0 0.506814 0.0652338 0.0874409
2120 42 1 0 0.379045 0.985762 0.00273812
2399 48 3 0 0.207592 0.867067 0.00616212
1256 25 1 0 0.617658 0.0166854 0.0769565
1386 28 5 0 0.818014 0.190094 0.00238764
906 18 1 0 0.690299 0.0300374 0.0184793
883 18 3 0 0.686651 0.102011 0.00651292
1239 25 5 0 0.548464 0.0850025 0.0302144
1230 25 5 0 0.55936 0.0449573 0.0480397
1241 25 5 0 0.553576 0.16894 0.0227259
1263 25 1 0 0.567349 0.200613 0.0336591
1240 25 3 0 0.568442 0.128473 0.0459507
904 18 1 0 0.723274 0.104554 0.00198352
872 18 3 0 0.701027 0.200226 0.0147667
905 18 1 0 0.680734 0.110434 0.0380378
1262 25 1 0 0.605386 0.126828 0.0449911
1261 25 1 0 0.559557 0.133367 0.0774781
898 18 1 0 0.718458 0.229849 0.00233379
899 18 1 0 0.728069 0.176744 0.0231917
896 18 1 0 0.650022 0.241466 0.0445826
871 18 3 0 0.674045 0.21457 0.0526004
1231 25 5 0 0.541502 0.00650744 0.0335604
897 18 1 0 0.653492 0.185977 0.0630066
1255 25 1 0 0.608908 0.0722693 0.0915946
1229 25 3 0 0.590845 0.0409013 0.0844834
1257 25 1 0 0.549885 0.974104 0.0471734
520 11 5 0 0.379283 0.223477 0.0153857
1384 28 5 0 0.834004 0.243359 0.0514625
1649 33 5 0 0.953527 0.105614 0.023356
1645 33 5 0 0.948362 0.184791 0.0218153
1650 33 5 0 0.943072 0.143697 0.00308562
1646 33 5 0 0.963487 0.188461 0.0606111
1671 33 1 0 0.950282 0.0723723 0.00994614
1390 28 5 0 0.82332 0.111476 0.0153309
1391 28 5 0 0.827241 0.155645 0.0281459
1396 28 5 0 0.828543 0.0312281 0.0274143
1395 28 5 0 0.832312 0.0752659 0.0399121
1644 33 5 0 0.938445 0.223744 0.00179194
1648 33 3 0 0.971155 0.104773 0.0651989
1385 28 5 0 0.821527 0.233289 0.014236
2117 42 2 0 0.280311 0.0516978 0.00674059
1392 28 5 0 0.839799 0.166565 0.0661556
1394 28 5 0 0.845297 0.0834233 0.0778635
2099 42 5 0 0.285957 0.150841 0.00891342
1643 33 5 0 0.942835 0.264228 0.0194618
1642 33 5 0 0.957248 0.267559 0.056944
1393 28 3 0 0.849896 0.129347 0.0957975
1383 28 5 0 0.843138 0.210532 0.078208
690 14 4 0 0.960953 0.825422 0.0903425
889 18 3 0 0.720324 0.905429 0.00756866
2122 42 1 0 0.40564 0.0603867 0.0130487
1267 25 1 0 0.46955 0.277094 0.00987837
2092 42 6 0 0.270289 0.0209395 0.00116101
2095 42 3 0 0.352335 0.0100352 0.0106418
1423 28 1 0 0.908359 0.89557 0.023131
911 18 1 0 0.695341 0.878736 0.0135609
1418 28 1 0 0.822168 0.993304 0.0833798
559 11 1 0 0.280353 0.382462 0.0648935
529 11 5 0 0.332418 0.353424 0.0992622
103 3 6 0 0.535268 0.602924 0.0949833
534 11 5 0 0.305746 0.355859 0.0668961
522 11 5 0 0.343982 0.287984 0.0400409
523 11 5 0 0.369984 0.287183 0.0737358
524 11 5 0 0.401387 0.253019 0.0775143
665 14 3 0 0.932939 0.801186 0.0915443
1270 25 1 0 0.457215 0.349417 0.0509652
1272 25 1 0 0.496253 0.330233 0.0877698
1245 25 3 0 0.505555 0.276412 0.0179872
664 14 6 0 0.951485 0.756898 0.0958795
705 14 1 0 0.697641 0.997555 0.0811876
1397 28 3 0 0.838411 0.989646 0.0540466
2440 48 1 0 0.341578 0.632198 0.0844137
1420 28 1 0 0.906168 0.00917226 0.0739733
1399 28 3 0 0.915751 0.969237 0.0204363
908 18 1 0 0.654975 0.969211 0.0263677
227 5 3 0 0.0553105 0.992194 0.092727
869 18 3 0 0.703877 0.230935 0.087958
1246 25 3 0 0.521672 0.325312 0.0264544
1247 25 3 0 0.493157 0.348429 0.0593168
1266 25 1 0 0.508691 0.256162 0.0453111
1271 25 1 0 0.504701 0.383348 0.0640167
505 10 1 0 0.665907 0.34741 0.0358141
1269 25 1 0 0.557387 0.324893 0.0355801
2401 48 3 0 0.259777 0.861299 0.00619974
1668 33 1 0 0.934678 0.29501 0.00306478
1667 33 1 0 0.960503 0.300953 0.0704281
1410 28 1 0 0.83614 0.278971 0.0593012
666 14 6 0 0.908085 0.80409 0.0551119
870 18 6 0 0.730278 0.269218 0.0766252
1374 27 1 0 0.57225 0.843017 0.0137126
1641 33 5 0 0.967658 0.230201 0.0775926
2439 48 1 0 0.343614 0.579489 0.059841
912 18 1 0 0.728822 0.921093 0.0363437
689 14 2 0 0.980298 0.756555 0.0817449
2442 48 1 0 0.428438 0.574819 0.0787382
2418 48 3 0 0.364063 0.609124 0.0680428
2438 48 1 0 0.35228 0.637976 0.00896451
2417 48 3 0 0.380976 0.631952 0.0290949
2437 48 1 0 0.40172 0.607276 0.0127029
2436 48 1 0 0.321856 0.691599 0.0413241
2416 48 5 0 0.408161 0.675696 0.0362801
2421 48 5 0 0.453256 0.670744 0.0361311
2415 48 5 0 0.389091 0.71761 0.0412884
2414 48 5 0 0.343598 0.72111 0.0429144
2410 48 5 0 0.414648 0.756409 0.0435308
2446 48 1 0 0.46785 0.637295 0.0316441
2422 48 3 0 0.485325 0.708893 0.0426486
2409 48 5 0 0.460692 0.75353 0.0431229
2447 48 1 0 0.511292 0.708568 0.0191995
2448 48 1 0 0.503395 0.703828 0.0709645
2408 48 5 0 0.486265 0.790991 0.0427703
2433 48 1 0 0.522968 0.788094 0.042412
1421 28 1 0 0.952111 0.968722 0.0269692
128 3 2 0 0.549346 0.592256 0.0704035
452 9 1 0 0.559335 0.585957 0.00451884
1074 22 6 0 0.876161 0.709912 0.00630477
521 11 5 0 0.34911 0.25653 0.0114746
1098 22 4 0 0.925166 0.66878 0.0309158
1072 22 6 0 0.953533 0.724169 0.00277539
1099 22 2 0 0.870092 0.716292 0.0343604
1073 22 3 0 0.919857 0.689574 0.00415076
1097 22 2 0 0.960154 0.732771 0.0302627
704 14 1 0 0.67299 0.920759 0.0973787
1419 28 1 0 0.894011 0.951584 0.0806043
1417 28 1 0 0.822373 0.959205 0.0416364
2398 48 6 0 0.186297 0.828646 0.023807
300 6 1 0 0.0856304 0.885787 0.0185355
277 6 3 0 0.0687978 0.852857 0.0153605
276 6 3 0 0.0461634 0.839495 0.055405
298 6 1 0 0.0336891 0.804553 0.0531973
2423 48 2 0 0.205408 0.818749 0.0458569
295 6 1 0 0.111182 0.827357 0.0830263
297 6 1 0 0.0165573 0.861201 0.0603737
248 5 1 0 0.0359934 0.950181 0.0423496
275 6 3 0 0.0790665 0.843509 0.0914152
226 5 3 0 0.0475612 0.985018 0.0475216
2425 48 2 0 0.166121 0.917282 0.0158222
2400 48 6 0 0.194633 0.906979 0.0272512
1670 33 1 0 0.949039 0.0831662 0.0833582
249 5 1 0 0.0203822 0.00767819 0.0374836
1647 33 5 0 0.974687 0.151631 0.0830859
296 6 1 0 0.0882604 0.879058 0.0963895
2434 48 1 0 0.300223 0.763695 0.0764314
2413 48 3 0 0.318607 0.764678 0.0479347
2435 48 1 0 0.29274 0.766946 0.0244999
2429 48 1 0 0.26327 0.831061 0.0659844
2411 48 5 0 0.395401 0.798848 0.0447807
2430 48 1 0 0.346052 0.917606 0.0449093
2428 48 1 0 0.275027 0.888774 0.0650355
2404 48 5 0 0.359768 0.883438 0.0448503
2402 48 3 0 0.280922 0.85712 0.0485921
2405 48 5 0 0.404482 0.87787 0.0435085
2406 48 5 0 0.422454 0.836184 0.0436806
2407 48 5 0 0.467526 0.831895 0.0426183
2412 48 5 0 0.349742 0.805213 0.0464028
2403 48 5 0 0.331842 0.84769 0.0464662
2431 48 1 0 0.426131 0.907685 0.0424325
2432 48 1 0 0.489293 0.861633 0.0420027
2419 48 3 0 0.403114 0.593902 0.0958822
709 14 1 0 0.726842 0.0768514 0.0984566
702 14 1 0 0.738894 0.89397 0.100357
1416 28 1 0 0.852957 0.0562364 0.0984608
1325 26 1 0 0.483799 0.939957 0.099562
560 11 1 0 0.315612 0.342135 0.00513682
2096 42 3 0 0.370731 0.0584971 0.00208729
482 10 3 0 0.664652 0.344432 0.00311037
251 5 1 0 0.0666602 0.0268993 0.0988523
1665 33 1 0 0.0041484 0.203048 0.167632
1666 33 1 0 0.985576 0.26811 0.128815
2130 42 1 0 0.409769 0.0994533 0.144695
2109 42 5 0 0.359776 0.150319 0.135502
541 11 1 0 0.503806 0.176118 0.150899
1227 25 6 0 0.493966 0.0634117 0.114204
2110 42 5 0 0.365816 0.168568 0.172818
1251 25 4 0 0.516384 0.0398002 0.168098
2115 42 5 0 0.341222 0.204233 0.184649
2132 42 1 0 0.432406 0.141926 0.190826
895 18 2 0 0.736165 0.286656 0.100777
304 6 1 0 0.102449 0.765462 0.118724
701 14 1 0 0.775522 0.81895 0.106103
2108 42 5 0 0.385173 0.114425 0.124614
2393 47 1 0 0.461627 0.452688 0.107378
1225 25 6 0 0.550324 0.0974228 0.152506
1226 25 3 0 0.530428 0.055525 0.141169
711 14 1 0 0.735494 0.0917327 0.149429
538 11 2 0 0.568703 0.169902 0.164554
1228 25 3 0 0.566548 0.0234594 0.122893
513 11 6 0 0.594505 0.190119 0.167624
1250 25 2 0 0.572774 0.104987 0.132265
1254 25 1 0 0.592141 0.0168375 0.145952
868 18 6 0 0.732952 0.195478 0.101335
893 18 2 0 0.739034 0.200806 0.129559
686 14 3 0 0.7374 0.0638602 0.127777
708 14 1 0 0.672261 0.0363105 0.144928
894 18 4 0 0.681615 0.240756 0.112732
707 14 1 0 0.718631 0.012048 0.170422
685 14 3 0 0.70707 0.0240738 0.141082
1253 25 1 0 0.550877 0.990647 0.116642
539 11 1 0 0.551076 0.227736 0.106109
1664 33 1 0 0.0170238 0.0890329 0.131636
700 14 1 0 0.814964 0.862983 0.11259
706 14 1 0 0.742689 0.972325 0.107197
1637 33 3 0 0.00179489 0.116872 0.148643
1414 28 1 0 0.884301 0.132874 0.107701
1408 28 1 0 0.889369 0.206722 0.128398
1382 28 3 0 0.856373 0.221992 0.121749
1638 33 5 0 0.989068 0.15662 0.121529
1639 33 5 0 0.992651 0.19838 0.136982
1640 33 5 0 0.982242 0.234727 0.115329
710 14 1 0 0.772825 0.0529856 0.125684
1662 33 1 0 0.935423 0.0847503 0.152146
1415 28 1 0 0.826969 0.131523 0.121559
1409 28 1 0 0.831952 0.205776 0.141921
283 6 2 0 0.83714 0.0349202 0.155332
1636 33 3 0 0.960341 0.0994035 0.172762
2394 47 1 0 0.444351 0.400864 0.129613
532 11 3 0 0.250293 0.351757 0.156874
533 11 3 0 0.225506 0.332861 0.193844
530 11 3 0 0.32384 0.389918 0.131355
558 11 1 0 0.193259 0.317234 0.185147
2116 42 3 0 0.305975 0.226131 0.159392
2142 42 1 0 0.273273 0.22501 0.17495
515 11 3 0 0.495 0.21179 0.146171
542 11 1 0 0.481145 0.223363 0.17483
552 11 1 0 0.292016 0.399878 0.189242
679 14 3 0 0.785759 0.84624 0.126469
554 11 1 0 0.254592 0.324243 0.135157
2141 42 1 0 0.3141 0.262119 0.15567
553 11 1 0 0.316881 0.346104 0.183703
531 11 3 0 0.296992 0.371947 0.16802
547 11 1 0 0.417901 0.2667 0.171464
526 11 3 0 0.426061 0.283761 0.143221
527 11 5 0 0.39061 0.318596 0.135481
2391 47 1 0 0.403586 0.467516 0.160249
551 11 1 0 0.355721 0.405245 0.141269
549 11 1 0 0.38763 0.343576 0.159053
548 11 1 0 0.458537 0.300937 0.147951
2368 47 3 0 0.438501 0.459714 0.169103
550 11 1 0 0.304827 0.418446 0.118637
131 3 1 0 0.586402 0.628042 0.182858
2392 47 1 0 0.497211 0.425512 0.142936
514 11 3 0 0.538527 0.238957 0.135393
694 14 1 0 0.840833 0.780265 0.106339
512 11 3 0 0.57765 0.2352 0.166078
540 11 1 0 0.529908 0.274845 0.131837
271 6 3 0 0.97727 0.906771 0.168585
537 11 4 0 0.605276 0.257609 0.156685
525 11 5 0 0.429334 0.249565 0.109803
1381 28 3 0 0.858747 0.273099 0.133071
1407 28 1 0 0.826137 0.28931 0.126445
1379 28 3 0 0.870192 0.282024 0.177748
1404 28 4 0 0.872059 0.318709 0.1825
1406 28 1 0 0.884263 0.290006 0.114441
1380 28 6 0 0.912769 0.262586 0.188149
2443 48 1 0 0.373861 0.531271 0.119146
306 6 1 0 0.0527469 0.720112 0.165138
305 6 1 0 0.09409 0.748487 0.193404
280 6 3 0 0.0641952 0.753872 0.174462
267 6 5 0 0.0275238 0.777451 0.197778
680 14 5 0 0.747895 0.879371 0.12894
528 11 5 0 0.364207 0.319838 0.102577
282 6 4 0 0.804322 0.970808 0.161243
1316 26 1 0 0.572752 0.794353 0.108043
695 14 1 0 0.873062 0.747069 0.138663
2441 48 1 0 0.42029 0.62375 0.108224
2390 47 1 0 0.456076 0.492129 0.173262
2445 48 1 0 0.412823 0.557955 0.152278
2444 48 1 0 0.357471 0.580469 0.145933
1312 26 1 0 0.454372 0.733422 0.178786
2420 48 3 0 0.385769 0.56407 0.130457
1306 26 1 0 0.387892 0.686708 0.14578
1313 26 1 0 0.448674 0.72531 0.127006
1280 26 3 0 0.362365 0.705533 0.162789
1307 26 1 0 0.329672 0.693517 0.151287
668 14 3 0 0.861137 0.781849 0.133746
676 14 5 0 0.739485 0.870925 0.198207
292 6 1 0 0.94975 0.916826 0.148422
1323 26 1 0 0.699638 0.762202 0.196813
134 3 1 0 0.485525 0.626529 0.159705
132 3 1 0 0.554619 0.579365 0.171943
2104 42 5 0 0.328668 0.167152 0.108777
129 3 4 0 0.601395 0.600953 0.113877
133 3 1 0 0.515952 0.676097 0.167643
104 3 3 0 0.570473 0.620375 0.119795
130 3 2 0 0.557085 0.684785 0.124859
1320 26 1 0 0.63965 0.759894 0.142444
107 3 3 0 0.51398 0.640553 0.17684
105 3 6 0 0.578718 0.666609 0.109865
106 3 3 0 0.55807 0.615477 0.164729
2103 42 5 0 0.302367 0.203215 0.119286
712 14 1 0 0.640925 0.957098 0.191656
1710 34 4 0 0.172159 0.875122 0.120064
516 11 5 0 0.460393 0.21566 0.112248
250 5 1 0 0.0237865 0.986367 0.109333
252 5 1 0 0.0810327 0.968669 0.104115
279 6 5 0 0.077304 0.780517 0.13845
272 6 5 0 0.0121445 0.882014 0.144847
274 6 5 0 0.0601529 0.821356 0.129745
268 6 5 0 0.0115052 0.819152 0.187549
273 6 5 0 0.0282377 0.840649 0.154187
294 6 1 0 0.0240097 0.90033 0.118817
1712 34 1 0 0.118644 0.864249 0.176659
1713 34 1 0 0.117521 0.920053 0.158688
1685 34 3 0 0.18203 0.885542 0.150312
1687 34 3 0 0.138532 0.895456 0.174862
1684 34 6 0 0.209778 0.924918 0.147459
1686 34 6 0 0.207107 0.849656 0.168267
1709 34 2 0 0.227154 0.922382 0.122822
293 6 1 0 0.99252 0.938105 0.179802
1291 26 3 0 0.449893 0.751359 0.150359
1711 34 2 0 0.224117 0.834792 0.147064
1281 26 5 0 0.366373 0.756745 0.156263
1308 26 1 0 0.295531 0.764408 0.160797
1290 26 5 0 0.40658 0.778429 0.150784
1285 26 5 0 0.367854 0.892534 0.142319
1310 26 1 0 0.336104 0.911257 0.143004
1309 26 1 0 0.297261 0.844533 0.152038
1289 26 5 0 0.408162 0.824219 0.14592
1282 26 5 0 0.328028 0.781063 0.156436
1283 26 5 0 0.328959 0.82581 0.151633
1284 26 5 0 0.368381 0.847513 0.146652
1286 26 5 0 0.406347 0.914937 0.136818
1288 26 5 0 0.448149 0.847237 0.140079
1287 26 5 0 0.446085 0.893049 0.135403
1311 26 1 0 0.405201 0.951529 0.133047
1315 26 1 0 0.598445 0.846882 0.109268
1324 26 1 0 0.560942 0.910552 0.120636
257 6 3 0 0.830445 0.977671 0.183755
1811 36 2 0 0.107954 0.450363 0.198112
1294 26 5 0 0.528958 0.848176 0.131049
1296 26 3 0 0.598138 0.814245 0.166968
682 14 5 0 0.691222 0.921082 0.160946
1314 26 1 0 0.522018 0.761447 0.142097
683 14 3 0 0.676012 0.944816 0.122235
1295 26 3 0 0.575377 0.825061 0.126376
684 14 3 0 0.707832 0.984604 0.110539
681 14 5 0 0.725979 0.890507 0.162915
1292 26 5 0 0.490508 0.780227 0.1431
1293 26 5 0 0.489266 0.825537 0.138185
1300 26 3 0 0.487406 0.921541 0.127915
1299 26 5 0 0.529099 0.893212 0.126401
1317 26 1 0 0.575685 0.793034 0.185202
1326 26 1 0 0.490894 0.947451 0.151172
703 14 1 0 0.641525 0.958034 0.125502
1297 26 3 0 0.644151 0.790024 0.161269
1319 26 1 0 0.667613 0.812604 0.145439
1318 26 1 0 0.603476 0.845879 0.183539
667 14 3 0 0.902552 0.813296 0.127669
669 14 5 0 0.833123 0.797367 0.169777
678 14 5 0 0.798205 0.82725 0.166877
284 6 1 0 0.872093 0.923767 0.159453
258 6 6 0 0.85706 0.0149651 0.17041
693 14 1 0 0.923155 0.811874 0.154778
677 14 5 0 0.77471 0.840442 0.199976
1663 33 1 0 0.0282863 0.127727 0.169602
692 14 1 0 0.891333 0.848556 0.124696
259 6 3 0 0.860146 0.934765 0.188969
555 11 1 0 0.229267 0.377777 0.14255
2369 47 3 0 0.461865 0.433004 0.135224
1633 33 6 0 0.99601 0.0265518 0.187305
1661 33 1 0 0.943365 0.128077 0.187349
687 14 5 0 0.66828 0.932632 0.193944
1302 26 4 0 0.388027 0.624149 0.197667
285 6 1 0 0.838704 0.907305 0.200253
2127 42 1 0 0.250827 0.248822 0.102574
1474 29 1 0 0.120955 0.161455 0.268922
2348 47 3 0 0.234348 0.20791 0.267324
1475 29 1 0 0.0689749 0.15969 0.295706
401 8 1 0 0.220328 0.0311593 0.263198
1451 29 3 0 0.105162 0.151363 0.297275
2374 47 2 0 0.229712 0.14558 0.248552
2349 47 6 0 0.25196 0.169769 0.246354
2347 47 6 0 0.205264 0.232946 0.241519
288 6 1 0 0.881132 0.882849 0.27443
2373 47 4 0 0.214549 0.195596 0.292777
1658 33 2 0 0.989775 0.999921 0.203554
135 3 1 0 0.469542 0.574311 0.211794
672 14 5 0 0.787192 0.822723 0.235906
379 8 3 0 0.254716 0.0389529 0.273623
2134 42 1 0 0.346892 0.119154 0.240438
2112 42 3 0 0.379415 0.109423 0.227019
402 8 1 0 0.270239 0.0611947 0.251158
2135 42 1 0 0.444005 0.081695 0.247239
2113 42 3 0 0.410867 0.0902907 0.260044
2136 42 1 0 0.3962 0.0585981 0.271261
2114 42 3 0 0.417157 0.122675 0.295877
2139 42 1 0 0.436269 0.153025 0.287304
399 8 1 0 0.316601 0.00255019 0.287882
2131 42 1 0 0.407682 0.177312 0.225708
511 11 6 0 0.563118 0.248873 0.204862
389 8 1 0 0.563225 0.950468 0.212719
660 13 1 0 0.627063 0.125811 0.219567
2133 42 1 0 0.37188 0.08218 0.205704
654 13 1 0 0.557798 0.1674 0.251276
658 13 1 0 0.647661 0.101669 0.264795
635 13 3 0 0.647237 0.132457 0.246489
633 13 3 0 0.576594 0.167407 0.279604
634 13 3 0 0.62785 0.172593 0.270553
385 8 2 0 0.554262 0.0897092 0.257925
359 8 3 0 0.572432 0.0268712 0.265904
655 13 1 0 0.569989 0.134614 0.293813
657 13 1 0 0.633466 0.204057 0.253788
360 8 6 0 0.544128 0.0603797 0.248108
659 13 1 0 0.682168 0.139581 0.237214
2389 47 1 0 0.473367 0.427254 0.218422
383 8 2 0 0.633954 0.0440941 0.251346
1305 26 1 0 0.339149 0.710982 0.224356
358 8 6 0 0.612339 0.0213084 0.242512
1635 33 6 0 0.999803 0.0831505 0.235591
1660 33 2 0 0.99433 0.0659843 0.25997
2387 47 1 0 0.377983 0.466286 0.233526
1634 33 3 0 0.972495 0.063582 0.204952
1659 33 4 0 0.941105 0.0509643 0.218471
270 6 5 0 0.959396 0.879059 0.203054
1403 28 2 0 0.835598 0.282156 0.227435
395 8 1 0 0.441798 0.982607 0.20361
1791 36 5 0 0.260445 0.466102 0.285919
2372 47 2 0 0.224197 0.253779 0.226373
556 11 1 0 0.218314 0.359838 0.215448
1786 36 6 0 0.138201 0.448942 0.209609
1816 36 1 0 0.215439 0.410048 0.270793
1787 36 3 0 0.133287 0.451588 0.251973
1790 36 3 0 0.220286 0.445818 0.263281
1817 36 1 0 0.227354 0.446178 0.231036
1812 36 4 0 0.104007 0.473126 0.258651
1789 36 3 0 0.176055 0.472716 0.271435
1815 36 1 0 0.180148 0.507536 0.260486
1298 26 3 0 0.665367 0.775606 0.201411
2377 47 1 0 0.242675 0.304813 0.286686
1580 31 1 0 0.49685 0.307054 0.231113
1566 31 1 0 0.416459 0.281119 0.244627
557 11 1 0 0.24632 0.307098 0.208708
1565 31 1 0 0.373677 0.233777 0.288184
2384 47 1 0 0.28748 0.362677 0.271082
2388 47 1 0 0.422458 0.40012 0.204468
2365 47 5 0 0.415326 0.434486 0.282988
1813 36 2 0 0.154189 0.393155 0.2719
2385 47 1 0 0.352204 0.400028 0.238581
1541 31 5 0 0.427648 0.2769 0.275413
2364 47 5 0 0.386566 0.400439 0.294427
2363 47 5 0 0.354893 0.385924 0.268381
1542 31 5 0 0.465104 0.297921 0.288337
2383 47 1 0 0.326623 0.321613 0.255497
2362 47 3 0 0.321433 0.349247 0.276935
2375 47 1 0 0.294892 0.248887 0.258027
1555 31 3 0 0.489831 0.326601 0.258324
1792 36 5 0 0.284305 0.498721 0.267637
2395 47 1 0 0.470426 0.476033 0.298265
2350 47 3 0 0.273649 0.237749 0.283048
1277 26 3 0 0.363218 0.642133 0.21617
1581 31 1 0 0.468344 0.354933 0.249073
674 14 5 0 0.731156 0.863744 0.267837
263 6 5 0 0.926971 0.830257 0.264544
286 6 1 0 0.924863 0.965842 0.205308
289 6 1 0 0.913309 0.810874 0.289459
1554 31 5 0 0.533008 0.344381 0.275176
1579 31 1 0 0.55468 0.363667 0.255111
673 14 5 0 0.765454 0.83467 0.269364
536 11 2 0 0.589671 0.259916 0.219087
670 14 5 0 0.844188 0.780724 0.205794
652 13 1 0 0.569893 0.238428 0.294409
1405 28 2 0 0.925319 0.280622 0.209847
291 6 1 0 0.0234223 0.721673 0.236946
266 6 5 0 0.0104792 0.755054 0.229239
1145 23 3 0 0.217371 0.742628 0.27655
1144 23 3 0 0.253165 0.704685 0.280202
265 6 5 0 0.977393 0.772728 0.251168
1168 23 1 0 0.183904 0.72831 0.269906
1793 36 5 0 0.319262 0.518357 0.285804
1162 23 1 0 0.264449 0.609599 0.289612
1166 23 1 0 0.253515 0.685005 0.252343
1304 26 1 0 0.398416 0.706241 0.2194
2386 47 1 0 0.428279 0.493039 0.245202
1818 36 1 0 0.275078 0.509802 0.237684
109 3 5 0 0.480307 0.599558 0.233514
1276 26 6 0 0.373373 0.633461 0.25703
1819 36 1 0 0.337737 0.544866 0.270166
1301 26 2 0 0.360445 0.65812 0.272611
110 3 5 0 0.469504 0.593717 0.27184
136 3 1 0 0.450215 0.563859 0.2804
2366 47 3 0 0.413009 0.459278 0.242509
1321 26 1 0 0.644937 0.749172 0.21576
140 3 1 0 0.526041 0.728124 0.215204
1788 36 6 0 0.124894 0.407499 0.267713
146 3 1 0 0.664326 0.773829 0.288318
108 3 5 0 0.503925 0.635955 0.22163
117 3 5 0 0.517219 0.666943 0.249439
119 3 5 0 0.557982 0.736725 0.271049
118 3 3 0 0.544963 0.707315 0.236613
139 3 1 0 0.575816 0.696242 0.22117
116 3 5 0 0.505949 0.661849 0.28872
1700 34 5 0 0.093356 0.800743 0.291193
262 6 5 0 0.909003 0.870475 0.256151
260 6 3 0 0.901265 0.940783 0.217549
697 14 1 0 0.831508 0.779031 0.267182
290 6 1 0 0.963965 0.753415 0.276238
1716 34 1 0 0.0915507 0.982339 0.224545
1715 34 1 0 0.162386 0.947103 0.215915
1169 23 1 0 0.226306 0.766136 0.252374
1717 34 1 0 0.024823 0.990411 0.2641
1698 34 5 0 0.0888566 0.879756 0.265372
1720 34 1 0 0.117686 0.82223 0.234929
1714 34 1 0 0.173197 0.892409 0.232515
1689 34 5 0 0.103832 0.915017 0.242689
1699 34 3 0 0.114917 0.835752 0.265381
1690 34 5 0 0.080201 0.953809 0.242544
1691 34 5 0 0.0429209 0.958324 0.264614
1692 34 5 0 0.0284168 0.924137 0.287684
1697 34 5 0 0.0510114 0.883932 0.288432
1721 34 1 0 0.149645 0.840947 0.275985
1688 34 3 0 0.147367 0.913151 0.217781
696 14 1 0 0.872114 0.756911 0.20876
398 8 1 0 0.298003 0.990733 0.21288
671 14 5 0 0.821544 0.793151 0.238444
393 8 1 0 0.366261 0.774249 0.257861
397 8 1 0 0.250672 0.960393 0.227313
698 14 1 0 0.775538 0.820792 0.298093
406 8 1 0 0.253139 0.888812 0.246782
394 8 1 0 0.445045 0.990036 0.255691
396 8 1 0 0.36564 0.995412 0.231813
374 8 5 0 0.382922 0.963224 0.234689
373 8 3 0 0.433221 0.966799 0.232324
377 8 3 0 0.285284 0.968723 0.236807
370 8 5 0 0.384159 0.884537 0.243532
381 8 5 0 0.289899 0.887192 0.246187
371 8 5 0 0.43071 0.883359 0.24165
382 8 3 0 0.310998 0.841896 0.251997
369 8 5 0 0.361796 0.844692 0.2493
368 8 5 0 0.384578 0.805675 0.252941
407 8 1 0 0.297549 0.81813 0.229775
367 8 5 0 0.429475 0.804618 0.250705
376 8 5 0 0.313714 0.925299 0.240954
375 8 5 0 0.360072 0.924123 0.239819
378 8 3 0 0.282418 0.994658 0.277024
372 8 5 0 0.456186 0.921358 0.236345
408 8 1 0 0.300981 0.828261 0.281137
392 8 1 0 0.446923 0.772308 0.253658
366 8 5 0 0.452664 0.843004 0.245115
287 6 1 0 0.889545 0.955241 0.245983
699 14 1 0 0.713805 0.872776 0.295432
2140 42 1 0 0.346561 0.218223 0.214348
388 8 1 0 0.516333 0.985886 0.210618
387 8 1 0 0.56792 0.957139 0.286414
141 3 1 0 0.579876 0.764563 0.262784
386 8 1 0 0.516529 0.986911 0.288446
1722 34 1 0 0.111239 0.768705 0.291416
688 14 3 0 0.678505 0.914222 0.234437
390 8 1 0 0.559048 0.875787 0.237075
362 8 3 0 0.532681 0.960265 0.229298
714 14 1 0 0.685838 0.942316 0.25495
391 8 1 0 0.515266 0.808765 0.245646
365 8 5 0 0.497917 0.840987 0.24313
363 8 5 0 0.502195 0.918894 0.23485
361 8 3 0 0.546718 0.981354 0.26996
713 14 1 0 0.648334 0.897182 0.246357
364 8 5 0 0.522331 0.878421 0.238197
675 14 5 0 0.717916 0.88185 0.232971
1322 26 1 0 0.667535 0.80448 0.221911
1378 28 6 0 0.835802 0.264037 0.203115
1167 23 1 0 0.286902 0.719848 0.283554
264 6 5 0 0.96087 0.813658 0.242273
269 6 5 0 0.977783 0.837672 0.210866
281 6 2 0 0.829849 0.982431 0.241919
261 6 5 0 0.924581 0.895358 0.225547
2367 47 3 0 0.438268 0.433345 0.20902
256 6 6 0 0.808659 0.989153 0.220424
384 8 4 0 0.5822 0.038425 0.295792
1540 31 5 0 0.403739 0.250571 0.299688
2111 42 3 0 0.399553 0.150529 0.204111
1303 26 2 0 0.297564 0.64889 0.214593
1279 26 3 0 0.366071 0.693513 0.207803
1575 31 1 0 0.603721 0.449122 0.296585
1570 31 1 0 0.613133 0.363329 0.297873
111 3 5 0 0.481589 0.62454 0.299301
656 13 1 0 0.646942 0.175641 0.298539
1278 26 6 0 0.319083 0.625303 0.207363
1450 29 3 0 0.127966 0.175971 0.332687
861 17 1 0 0.0792508 0.014207 0.359416
1470 29 1 0 0.0705158 0.169854 0.373066
1449 29 3 0 0.106947 0.162603 0.373361
1471 29 1 0 0.110613 0.125956 0.377508
867 17 1 0 0.225219 0.854077 0.303808
1574 31 1 0 0.545723 0.436591 0.301545
1549 31 5 0 0.545843 0.337939 0.31319
1472 29 1 0 0.164176 0.167658 0.332965
1732 34 1 0 0.990148 0.75004 0.376737
2359 47 5 0 0.388612 0.380728 0.331603
1473 29 1 0 0.125178 0.212721 0.328341
115 3 5 0 0.51818 0.692882 0.317565
638 13 2 0 0.388055 0.0541392 0.397267
650 13 1 0 0.452206 0.130642 0.391843
2351 47 3 0 0.257412 0.279669 0.306999
1718 34 1 0 0.973445 0.962501 0.309835
120 3 5 0 0.54392 0.730466 0.309011
1564 31 1 0 0.361312 0.201872 0.350163
1538 31 5 0 0.391523 0.218588 0.361541
1170 23 1 0 0.214733 0.761994 0.304416
651 13 1 0 0.50373 0.149746 0.335667
649 13 1 0 0.488972 0.0855864 0.381598
2228 44 1 0 0.556958 0.0536871 0.359208
629 13 5 0 0.515031 0.149951 0.36647
2229 44 1 0 0.619923 0.0936276 0.331889
631 13 5 0 0.573061 0.200899 0.350624
2243 44 1 0 0.70692 0.0969923 0.335283
2204 44 5 0 0.622124 0.080734 0.362231
630 13 5 0 0.551163 0.174474 0.378247
2244 44 1 0 0.685678 0.147523 0.355633
2218 44 3 0 0.697332 0.113401 0.363508
2203 44 5 0 0.587045 0.0585258 0.377483
628 13 3 0 0.487798 0.120193 0.393393
653 13 1 0 0.521314 0.20802 0.303884
2205 44 5 0 0.659868 0.0874126 0.383615
2217 44 5 0 0.73776 0.11699 0.389934
972 20 6 0 0.749733 0.00777353 0.364004
1719 34 1 0 0.947202 0.903423 0.352604
1066 21 1 0 0.931479 0.163276 0.387272
1067 21 1 0 0.942048 0.130697 0.343527
1065 21 1 0 0.980284 0.0709097 0.384392
1043 21 3 0 0.954664 0.138681 0.373589
2242 44 1 0 0.767138 0.134624 0.377952
1068 21 1 0 0.98803 0.154674 0.370523
1042 21 3 0 0.957763 0.0953006 0.399186
1064 21 1 0 0.924098 0.0796494 0.400869
404 8 1 0 0.285793 0.0738625 0.324476
2371 47 3 0 0.455944 0.429233 0.348117
1822 36 1 0 0.209782 0.426966 0.347069
1801 36 3 0 0.245344 0.416683 0.344476
1823 36 1 0 0.245274 0.385089 0.327332
2378 47 1 0 0.229361 0.269348 0.326556
1015 20 1 0 0.684135 0.646137 0.37686
563 12 3 0 0.819859 0.814064 0.378531
1539 31 5 0 0.416584 0.245108 0.337741
2397 47 1 0 0.489707 0.414024 0.349243
588 12 4 0 0.785713 0.823623 0.368865
1734 34 1 0 0.942913 0.817514 0.358062
562 12 6 0 0.848115 0.853151 0.376557
2396 47 1 0 0.455868 0.456346 0.370553
2353 47 5 0 0.299575 0.284247 0.370114
1798 36 5 0 0.321574 0.460039 0.380331
1800 36 5 0 0.272589 0.452822 0.323393
1544 31 5 0 0.454286 0.266195 0.352024
2360 47 5 0 0.358449 0.34794 0.343669
2352 47 5 0 0.295579 0.29972 0.33256
2357 47 5 0 0.423381 0.375915 0.394754
1799 36 5 0 0.308382 0.472446 0.342392
2355 47 5 0 0.361426 0.330807 0.381386
2379 47 1 0 0.276382 0.258563 0.381289
1545 31 5 0 0.465598 0.259538 0.391139
2358 47 5 0 0.421092 0.394019 0.358071
1797 36 5 0 0.357779 0.48182 0.396799
2354 47 5 0 0.332089 0.299448 0.39417
1802 36 5 0 0.263106 0.406644 0.385223
1543 31 5 0 0.479649 0.292914 0.326773
1548 31 5 0 0.519118 0.313437 0.338822
636 13 5 0 0.609414 0.225268 0.361177
1708 34 3 0 0.979152 0.822547 0.363844
1696 34 5 0 0.0355097 0.849419 0.3125
2361 47 5 0 0.325184 0.331754 0.319265
1552 31 3 0 0.576475 0.444495 0.318548
661 13 1 0 0.626221 0.246265 0.338932
1572 31 1 0 0.620994 0.411891 0.361332
1571 31 1 0 0.611894 0.334671 0.342719
1547 31 5 0 0.532413 0.308594 0.377146
1551 31 3 0 0.588489 0.40461 0.346739
1573 31 1 0 0.563205 0.402238 0.370638
1569 31 1 0 0.563489 0.323587 0.388045
1733 34 1 0 0.981757 0.834341 0.394905
1550 31 3 0 0.592108 0.358533 0.324635
995 20 2 0 0.826383 0.963776 0.384478
1723 34 1 0 0.0674131 0.714518 0.30345
1731 34 1 0 0.160916 0.61831 0.387265
1172 23 1 0 0.227526 0.50373 0.376855
1165 23 1 0 0.208101 0.662376 0.315469
1171 23 1 0 0.217047 0.565078 0.324933
1705 34 3 0 0.115245 0.666281 0.358662
1727 34 1 0 0.130393 0.662077 0.328925
1704 34 3 0 0.0974923 0.715305 0.36316
1146 23 5 0 0.236415 0.569525 0.35235
1728 34 1 0 0.0868084 0.642478 0.360161
1703 34 3 0 0.0577626 0.723986 0.33401
1724 34 1 0 0.0305451 0.70003 0.341135
1143 23 3 0 0.243684 0.672944 0.316094
1164 23 1 0 0.248816 0.691655 0.344071
1726 34 1 0 0.125114 0.739357 0.357521
1706 34 3 0 0.150202 0.653583 0.390937
1730 34 1 0 0.180274 0.675154 0.388582
1694 34 5 0 0.976979 0.897485 0.334147
1147 23 3 0 0.22529 0.539067 0.386415
970 20 6 0 0.79709 0.948748 0.383111
1821 36 1 0 0.408041 0.531954 0.390327
1725 34 1 0 0.085936 0.720943 0.393963
1140 23 5 0 0.292967 0.608099 0.388429
1794 36 5 0 0.331371 0.505681 0.322787
1139 23 5 0 0.323874 0.641719 0.389592
1142 23 3 0 0.273761 0.630036 0.315801
1796 36 5 0 0.379353 0.514671 0.376739
1141 23 5 0 0.268038 0.601962 0.354251
1161 23 1 0 0.328498 0.664934 0.364835
1820 36 1 0 0.384511 0.55327 0.324587
1795 36 5 0 0.366384 0.526521 0.340161
113 3 5 0 0.480237 0.648199 0.36512
112 3 5 0 0.469215 0.61802 0.337353
137 3 1 0 0.449917 0.588271 0.346063
1163 23 1 0 0.309169 0.638923 0.310283
114 3 5 0 0.504328 0.685173 0.355882
127 3 3 0 0.515149 0.716824 0.389841
138 3 1 0 0.469476 0.64249 0.395788
851 17 1 0 0.292526 0.748411 0.390724
1577 31 1 0 0.541959 0.485763 0.363753
124 3 3 0 0.660662 0.761552 0.319088
1578 31 1 0 0.560228 0.516684 0.321119
150 3 1 0 0.704831 0.735834 0.366314
125 3 3 0 0.707868 0.751712 0.336777
1553 31 3 0 0.569311 0.48921 0.341728
1576 31 1 0 0.60029 0.499062 0.357653
147 3 1 0 0.641559 0.729713 0.317826
148 3 1 0 0.727303 0.783071 0.340232
149 3 1 0 0.726972 0.728739 0.317258
2273 45 1 0 0.99509 0.642476 0.379829
838 17 3 0 0.0817264 0.0011636 0.390098
1707 34 5 0 0.00322993 0.778503 0.359595
380 8 3 0 0.251894 0.0643584 0.31393
564 12 6 0 0.836691 0.780343 0.351894
865 17 1 0 0.183033 0.928101 0.317943
405 8 1 0 0.235855 0.0431422 0.336875
860 17 1 0 0.0486819 0.98644 0.397698
837 17 3 0 0.118841 0.964382 0.392217
858 17 1 0 0.151582 0.980382 0.385928
836 17 3 0 0.111895 0.925687 0.36186
1701 34 5 0 0.0559524 0.807671 0.3135
857 17 1 0 0.110375 0.940996 0.331989
829 17 5 0 0.188826 0.825304 0.389864
835 17 5 0 0.150871 0.891026 0.363501
828 17 5 0 0.224351 0.831818 0.36449
841 17 3 0 0.224998 0.868977 0.333827
840 17 5 0 0.184688 0.898857 0.337706
1702 34 5 0 0.0392301 0.77255 0.335773
834 17 5 0 0.152605 0.854564 0.38887
856 17 1 0 0.0785374 0.910146 0.365844
1695 34 5 0 0.998325 0.85745 0.335636
2086 41 1 0 0.459268 0.00321885 0.363151
1814 36 1 0 0.170481 0.475499 0.303803