read using pysimm.system.read_mol

11100 atoms
11610 bonds
22520 angles
34760 dihedrals
50 impropers

14 atom types
17 bond types
27 angle types
17 dihedral types
3 improper types

0.000000 47.144188 xlo xhi
0.000000 47.144188 ylo yhi
0.000000 2357.209393 zlo zhi

Masses

   1	12.01	# c3
   2	1.008	# hc
   3	32.06	# s4
   4	32.06	# ss
   5	12.01	# c2
   6	16.0	# o
   7	16.0	# oh
   8	1.008	# ho
   9	12.01	# c
  10	14.01	# n2
  11	1.008	# hn
  12	1.008	# h4
  13	14.01	# n3
  14	16.0	# os

Pair Coeffs

   1	0.1078	3.397709531243626	# c3
   2	0.0208	2.600176998764394	# hc
   3	0.2824	3.532413417426445	# s4
   4	0.2824	3.532413417426445	# ss
   5	0.0988	3.3152123099438304	# c2
   6	0.1463	3.048120874245357	# o
   7	0.093	3.242871334030835	# oh
   8	0.0047	0.5379246460131368	# ho
   9	0.0988	3.3152123099438304	# c
  10	0.0941	3.3841678707278926	# n2
  11	0.01	1.1064962079303013	# hn
  12	0.0161	2.536388650545546	# h4
  13	0.0858	3.36510263815969	# n3
  14	0.0726	3.156097798883966	# os

Bond Coeffs

   1	232.52	1.538	# c3,c3
   2	375.92	1.097	# c3,hc
   3	246.19	1.736	# c2,ss
   4	229.42	1.76	# c2,s4
   5	393.86	1.087	# c2,hc
   6	481.83	1.334	# c2,c2
   7	572.26	1.504	# o,s4
   8	255.56	1.51	# c2,c3
   9	563.51	0.973	# ho,oh
  10	383.13	1.351	# c,oh
  11	368.17	1.406	# c,c2
  12	518.67	1.282	# c2,n2
  13	394.23	1.087	# c2,h4
  14	412.66	1.34	# c2,n3
  15	511.28	1.019	# hn,n3
  16	284.76	1.432	# c3,os
  17	372.94	1.358	# c,os

Angle Coeffs

   1	46.816	109.8	# c3,c3,hc
   2	38.96	107.58	# hc,c3,hc
   3	64.888	111.51	# c3,c3,c3
   4	64.815	122.35	# c2,c2,ss
   5	71.539	121.81	# c2,c2,c2
   6	50.527	119.7	# c2,c2,hc
   7	95.34	107.09	# c2,s4,o
   8	73.133	102.29	# c2,s4,c2
   9	75.153	99.56	# c2,ss,c2
  10	64.747	119.84	# c2,c2,s4
  11	47.475	110.36	# c2,c3,hc
  12	65.459	111.56	# c2,c3,c3
  13	66.132	123.63	# c2,c2,c3
  14	51.617	106.55	# c,oh,ho
  15	69.337	116.78	# c2,c,c2
  16	48.494	119.7	# c,c2,hc
  17	69.891	120.7	# c,c2,c2
  18	83.96	123.43	# c3,c2,n2
  19	73.202	118.18	# c2,n2,c2
  20	89.778	126.01	# c2,c2,n2
  21	88.404	124.55	# c2,c2,n3
  22	49.47	119.38	# c2,n3,hn
  23	49.914	122.67	# c2,c2,h4
  24	68.168	124.68	# c2,n3,c2
  25	65.889	119.7	# c,c2,c3
  26	66.906	115.98	# c,os,c3
  27	85.306	107.97	# c3,c3,os

Dihedral Coeffs

   1	2	0.08	3	0	0.08	3	0	# hc,c3,c3,c3
   2	3	0.13	3	0	0.29	2	180	0.11	1	0	# c3,c3,c3,c3
   3	1	0.12	3	0	# hc,c3,c3,hc
   4	1	6.65	2	180	# X,c2,s4,X
   5	1	6.65	2	180	# X,c2,c2,X
   6	1	1.1	2	180	# X,c2,ss,X
   7	1	0.15555555555555556	3	0	# X,c3,c3,X
   8	2	0.36	3	180	1.47	1	0	# hc,c3,c2,c2
   9	2	5.29	2	180	0.4	1	180	# c3,c2,c2,c3
  10	1	0.0	2	0	# X,c2,c3,X
  11	1	2.3	2	180	# X,c,oh,X
  12	1	2.175	2	180	# X,c,c2,X
  13	1	4.15	2	180	# X,c2,n2,X
  14	1	0.3	2	180	# X,c2,n3,X
  15	2	0.383	3	0	0.8	1	180	# c3,c3,os,c
  16	2	0.0	3	0	0.25	1	0	# hc,c3,c3,os
  17	1	2.7	2	180	# X,c,os,X

Improper Coeffs

   1	1.1	-1	2	# c2,c3,c2,n2
   2	1.1	-1	2	# c2,c2,c,c3
   3	1.1	-1	2	# c2,c,c2,c3

Atoms

   1	1	1	-0.0653839431447439	33.2467	23.5669	1179.7026
   2	1	1	-0.05617548784703076	32.4233	23.3583	1178.4405
   3	1	1	-0.053572328869722005	31.9707	21.9038	1178.3027
   4	1	1	-0.053309558049436066	31.2411	21.6096	1176.987
   5	1	1	-0.053045554675122654	29.9986	22.4617	1176.7044
   6	1	1	-0.050439702119595156	28.8624	22.2377	1177.7086
   7	1	1	-0.0411553733921894	27.6892	23.2429	1177.5611
   8	1	1	-0.06223526948020563	27.1236	23.2056	1176.1361
   9	1	1	-0.03545904100171808	26.6397	22.9801	1178.6753
  10	1	1	-0.0493709427849443	25.531	21.9868	1178.3442
  11	1	1	-0.04701817317609457	24.4887	22.1737	1179.4444
  12	1	1	-0.026105444353252003	24.7215	23.568	1180.0806
  13	1	1	-0.059082189469500876	25.2305	23.3506	1181.5367
  14	1	1	-0.03261463038854838	25.8974	24.207	1179.2709
  15	1	1	-0.04909447865170067	25.4564	25.3175	1178.3131
  16	1	1	-0.046751378189512395	24.0868	25.0639	1177.699
  17	1	1	-0.023546304840402845	22.9165	25.0613	1178.7345
  18	1	1	-0.05882504879939484	22.6653	26.5885	1179.0433
  19	1	1	-0.029787727722895653	23.4326	24.4709	1180.1124
  20	1	1	-0.04907275804269185	22.3337	23.9221	1181.0362
  21	1	1	-0.0490725842134473	20.9048	24.1053	1180.5544
  22	1	1	-0.029778061191734404	20.7495	23.4712	1179.1643
  23	1	1	-0.02588105105529642	19.2379	23.0528	1178.7829
  24	1	1	-0.059072499913443516	19.2964	21.8509	1177.7931
  25	1	1	-0.047272668179871455	18.4342	22.5839	1180.0347
  26	1	1	-0.05225010779251273	16.9631	22.2308	1179.7937
  27	1	1	-0.0478229954707022	16.4089	22.6419	1178.4383
  28	1	1	-0.03206731720918835	16.9153	23.9987	1177.895
  29	1	1	-0.059624494273744805	16.0791	25.125	1178.5513
  30	1	1	-0.059624494273744805	16.5864	24.0216	1176.3835
  31	1	1	-0.030562947165444446	18.4417	24.2713	1178.2191
  32	1	1	-0.04885870359535503	19.2003	24.9877	1177.0943
  33	1	1	-0.04674159854045128	20.5669	25.466	1177.57
  34	1	1	-0.023545958946429742	21.5312	24.3625	1178.1069
  35	1	1	-0.05882504591720464	21.8816	23.4782	1176.875
  36	1	2	0.023036182875814888	34.1371	22.9308	1179.7033
  37	1	2	0.023036182875814888	32.6599	23.3357	1180.597
  38	1	2	0.023036182875814888	33.5738	24.6102	1179.7729
  39	1	2	0.026372312840597434	33.0195	23.6495	1177.5677
  40	1	2	0.026372312840597434	31.5545	24.0243	1178.4805
  41	1	2	0.026644681887794307	32.8512	21.2498	1178.3535
  42	1	2	0.026644681887794307	31.339	21.6295	1179.1547
  43	1	2	0.02665481777258361	30.9606	20.5491	1176.9725
  44	1	2	0.02665481777258361	31.948	21.7527	1176.1595
  45	1	2	0.026665026399942025	30.2699	23.5229	1176.6712
  46	1	2	0.026665026399942025	29.645	22.1993	1175.7001
  47	1	2	0.026938875417741284	29.26	22.3301	1178.7257
  48	1	2	0.026938875417741284	28.4883	21.2108	1177.6102
  49	1	2	0.030282508645508403	28.1149	24.2406	1177.7309
  50	1	2	0.023329370519117997	26.2187	23.8069	1176.0334
  51	1	2	0.023329370519117997	27.8469	23.6095	1175.4194
  52	1	2	0.023329370519117997	26.886	22.182	1175.8273
  53	1	2	0.03085151519283527	27.1908	22.5503	1179.5253
  54	1	2	0.026980057557855843	25.0706	22.1843	1177.3749
  55	1	2	0.026980057557855843	25.9025	20.9579	1178.3177
  56	1	2	0.02724524747105678	24.6021	21.3749	1180.1871
  57	1	2	0.02724524747105678	23.4859	22.0566	1179.0324
  58	1	2	0.02362415703745198	26.1513	22.7569	1181.5579
  59	1	2	0.02362415703745198	24.5021	22.8177	1182.154
  60	1	2	0.02362415703745198	25.4467	24.3087	1182.024
  61	1	2	0.03113799271052979	26.6082	24.6934	1179.9557
  62	1	2	0.026990585529226663	25.4385	26.2638	1178.8652
  63	1	2	0.026990585529226663	26.1956	25.4819	1177.5243
  64	1	2	0.027255651648228418	23.8963	25.8148	1176.922
  65	1	2	0.027255651648228418	24.1647	24.1124	1177.179
  66	1	2	0.023634344298360747	23.5512	27.0795	1179.4609
  67	1	2	0.023634344298360747	21.8707	26.7346	1179.7797
  68	1	2	0.023634344298360747	22.4195	27.1573	1178.1407
  69	1	2	0.03142464541014992	23.7988	25.3462	1180.6739
  70	1	2	0.02699100009041915	22.4839	22.851	1181.2123
  71	1	2	0.02699100009041915	22.4266	24.3937	1182.0225
  72	1	2	0.026991001473137915	20.5964	25.1545	1180.5592
  73	1	2	0.026991001473137915	20.2979	23.6025	1181.3095
  74	1	2	0.03142481659468552	21.2906	22.5176	1179.2374
  75	1	2	0.02362432628888263	18.6015	21.0488	1178.0572
  76	1	2	0.02362432628888263	19.0671	22.1435	1176.7656
  77	1	2	0.02362432628888263	20.2769	21.363	1177.7907
  78	1	2	0.027235182768327964	18.9387	21.7376	1180.5179
  79	1	2	0.027235182768327964	18.4062	23.3908	1180.7755
  80	1	2	0.026695812139355034	16.3576	22.6907	1180.5841
  81	1	2	0.026695812139355034	16.8262	21.1493	1179.9169
  82	1	2	0.027214252392738836	15.3108	22.639	1178.4925
  83	1	2	0.027214252392738836	16.6424	21.8501	1177.7155
  84	1	2	0.02360348016307181	15.0105	25.0017	1178.3445
  85	1	2	0.02360348016307181	16.3777	26.1093	1178.1757
  86	1	2	0.02360348016307181	16.2041	25.1318	1179.6399
  87	1	2	0.02360348016307181	15.532	23.7741	1176.2103
  88	1	2	0.02360348016307181	16.7536	25.0074	1175.9375
  89	1	2	0.02360348016307181	17.1851	23.2894	1175.8314
  90	1	2	0.03139380685746208	18.4392	24.9972	1179.0492
  91	1	2	0.02700043330128169	19.2999	24.3618	1176.2031
  92	1	2	0.02700043330128169	18.6396	25.8794	1176.7856
  93	1	2	0.027255821490419434	21.0464	26.008	1176.7448
  94	1	2	0.027255821490419434	20.3558	26.2028	1178.3513
  95	1	2	0.02363434430912457	21.0097	23.0387	1176.3943
  96	1	2	0.02363434430912457	22.3571	24.0626	1176.0797
  97	1	2	0.02363434430912457	22.5375	22.6476	1177.1449
  98	2	1	-0.0653839431447439	34.101	19.6533	1767.1679
  99	2	1	-0.05617548784703076	34.6716	18.2875	1767.5191
 100	2	1	-0.053572328869722005	33.5634	17.2899	1767.8604
 101	2	1	-0.053309558049436066	34.0866	15.9315	1768.3408
 102	2	1	-0.053045554675122654	35.0274	15.197	1767.379
 103	2	1	-0.050439702119595156	34.3576	14.7873	1766.0625
 104	2	1	-0.0411553733921894	35.3474	14.2378	1765.0009
 105	2	1	-0.06223526948020563	36.1346	13.0477	1765.5633
 106	2	1	-0.03545904100171808	34.5796	13.9353	1763.6853
 107	2	1	-0.0493709427849443	34.0019	12.5312	1763.5428
 108	2	1	-0.04701817317609457	33.6158	12.4081	1762.0706
 109	2	1	-0.026105444353252003	34.413	13.4801	1761.2843
 110	2	1	-0.059082189469500876	33.4	14.5415	1760.7609
 111	2	1	-0.03261463038854838	35.319	14.1895	1762.3438
 112	2	1	-0.04909447865170067	36.7976	13.802	1762.2511
 113	2	1	-0.046751378189512395	37.0076	12.3517	1761.8388
 114	2	1	-0.023546304840402845	36.5071	12.0223	1760.3956
 115	2	1	-0.05882504879939484	37.6245	12.6134	1759.4507
 116	2	1	-0.029787727722895653	35.226	12.8974	1760.0689
 117	2	1	-0.04907275804269185	34.3277	12.3422	1758.9523
 118	2	1	-0.0490725842134473	34.8323	11.0936	1758.2496
 119	2	1	-0.029778061191734404	35.0782	9.9881	1759.2869
 120	2	1	-0.02588105105529642	35.0316	8.4881	1758.6926
 121	2	1	-0.059072499913443516	34.5714	7.5248	1759.8275
 122	2	1	-0.047272668179871455	34.0014	8.3589	1757.5286
 123	2	1	-0.05225010779251273	33.9295	6.9896	1756.8455
 124	2	1	-0.0478229954707022	35.0511	6.0257	1757.2003
 125	2	1	-0.03206731720918835	36.4492	6.6646	1757.3725
 126	2	1	-0.059624494273744805	37.0773	6.8401	1755.9677
 127	2	1	-0.059624494273744805	37.3197	5.6301	1758.1246
 128	2	1	-0.030562947165444446	36.4051	8.0867	1758.069
 129	2	1	-0.04885870359535503	37.5743	8.3489	1759.0271
 130	2	1	-0.04674159854045128	37.6278	9.8145	1759.4418
 131	2	1	-0.023545958946429742	36.3547	10.3738	1760.1504
 132	2	1	-0.05882504591720464	36.2744	9.629	1761.5146
 133	2	2	0.023036182875814888	33.5166	20.0628	1767.9975
 134	2	2	0.023036182875814888	33.4522	19.5934	1766.2886
 135	2	2	0.023036182875814888	34.9114	20.3555	1766.9432
 136	2	2	0.026372312840597434	35.3579	18.3899	1768.3679
 137	2	2	0.026372312840597434	35.2572	17.9276	1766.6662
 138	2	2	0.026644681887794307	32.9372	17.7113	1768.6578
 139	2	2	0.026644681887794307	32.9049	17.1568	1766.9951
 140	2	2	0.02665481777258361	33.2284	15.2865	1768.5667
 141	2	2	0.02665481777258361	34.6179	16.0809	1769.2896
 142	2	2	0.026665026399942025	35.913	15.8102	1767.1776
 143	2	2	0.026665026399942025	35.3828	14.2968	1767.8945
 144	2	2	0.026938875417741284	33.8509	15.6586	1765.6321
 145	2	2	0.026938875417741284	33.5792	14.0417	1766.2679
 146	2	2	0.030282508645508403	36.0591	15.0479	1764.7944
 147	2	2	0.023329370519117997	36.747	12.5596	1764.8033
 148	2	2	0.023329370519117997	36.8212	13.3731	1766.3524
 149	2	2	0.023329370519117997	35.4664	12.2944	1765.994
 150	2	2	0.03085151519283527	33.7205	14.6226	1763.6626
 151	2	2	0.026980057557855843	34.7276	11.7551	1763.7908
 152	2	2	0.026980057557855843	33.1369	12.3801	1764.1957
 153	2	2	0.02724524747105678	32.535	12.5628	1761.9677
 154	2	2	0.02724524747105678	33.806	11.3938	1761.7183
 155	2	2	0.02362415703745198	32.8378	15.0017	1761.5813
 156	2	2	0.02362415703745198	32.661	14.1079	1760.0817
 157	2	2	0.02362415703745198	33.9169	15.3466	1760.2254
 158	2	2	0.03113799271052979	35.3042	15.2784	1762.1863
 159	2	2	0.026990585529226663	37.2833	14.4616	1761.5232
 160	2	2	0.026990585529226663	37.3234	14.0046	1763.1882
 161	2	2	0.027255651648228418	38.0721	12.1021	1761.931
 162	2	2	0.027255651648228418	36.4963	11.7519	1762.5875
 163	2	2	0.023634344298360747	37.7499	13.694	1759.5802
 164	2	2	0.023634344298360747	37.3896	12.467	1758.3931
 165	2	2	0.023634344298360747	38.6098	12.1826	1759.6567
 166	2	2	0.03142464541014992	35.624	13.8205	1759.616
 167	2	2	0.02699100009041915	33.3295	12.1156	1759.3437
 168	2	2	0.02699100009041915	34.1723	13.1224	1758.1966
 169	2	2	0.026991001473137915	35.7224	11.2886	1757.6448
 170	2	2	0.026991001473137915	34.0352	10.8357	1757.5501
 171	2	2	0.03142481659468552	34.2108	10.0467	1759.9589
 172	2	2	0.02362432628888263	33.8003	6.8213	1759.501
 173	2	2	0.02362432628888263	35.3942	6.9291	1760.2299
 174	2	2	0.02362432628888263	34.1066	8.0598	1760.6625
 175	2	2	0.027235182768327964	33.0	8.6499	1757.8703
 176	2	2	0.027235182768327964	34.2677	9.0544	1756.7248
 177	2	2	0.026695812139355034	33.9146	7.1396	1755.7591
 178	2	2	0.026695812139355034	32.9692	6.5162	1757.0851
 179	2	2	0.027214252392738836	35.0857	5.2322	1756.44
 180	2	2	0.027214252392738836	34.775	5.4995	1758.1226
 181	2	2	0.02360348016307181	37.1533	5.8823	1755.4416
 182	2	2	0.02360348016307181	38.0855	7.2619	1756.0353
 183	2	2	0.02360348016307181	36.4765	7.5108	1755.3433
 184	2	2	0.02360348016307181	37.273	4.6507	1757.6331
 185	2	2	0.02360348016307181	38.376	5.9173	1758.1501
 186	2	2	0.02360348016307181	36.9771	5.4911	1759.1554
 187	2	2	0.03139380685746208	36.5532	8.8156	1757.255
 188	2	2	0.02700043330128169	37.5371	7.7007	1759.907
 189	2	2	0.02700043330128169	38.5209	8.1263	1758.518
 190	2	2	0.027255821490419434	38.504	9.956	1760.0876
 191	2	2	0.027255821490419434	37.8246	10.3661	1758.5172
 192	2	2	0.02363434430912457	36.2258	8.5463	1761.4157
 193	2	2	0.02363434430912457	37.1696	9.8003	1762.1223
 194	2	2	0.02363434430912457	35.3942	9.9268	1762.0886
 195	3	1	-0.0653839431447439	19.4613	40.8092	597.9796
 196	3	1	-0.05617548784703076	19.3008	39.2964	597.9757
 197	3	1	-0.053572328869722005	18.6361	38.8017	599.2614
 198	3	1	-0.053309558049436066	18.5603	37.2742	599.3652
 199	3	1	-0.053045554675122654	17.8354	36.5595	598.2191
 200	3	1	-0.050439702119595156	16.3451	36.9063	598.1278
 201	3	1	-0.0411553733921894	15.6523	36.3601	596.851
 202	3	1	-0.06223526948020563	15.828	34.8398	596.7511
 203	3	1	-0.03545904100171808	14.1752	36.8389	596.819
 204	3	1	-0.0493709427849443	13.151	35.9292	597.489
 205	3	1	-0.04701817317609457	11.7929	36.4508	597.0251
 206	3	1	-0.026105444353252003	12.0231	37.2795	595.7354
 207	3	1	-0.059082189469500876	11.7244	38.7722	596.0659
 208	3	1	-0.03261463038854838	13.5543	37.1704	595.4349
 209	3	1	-0.04909447865170067	13.8889	36.252	594.2562
 210	3	1	-0.046751378189512395	12.9495	35.0591	594.1465
 211	3	1	-0.023546304840402845	11.4678	35.4436	593.8323
 212	3	1	-0.05882504879939484	11.4703	35.7789	592.2901
 213	3	1	-0.029787727722895653	11.1236	36.8274	594.5253
 214	3	1	-0.04907275804269185	9.626	37.0826	594.7579
 215	3	1	-0.0490725842134473	8.6775	36.0303	594.21
 216	3	1	-0.029778061191734404	9.0453	34.658	594.7933
 217	3	1	-0.02588105105529642	7.8373	33.5876	594.8032
 218	3	1	-0.059072499913443516	8.066	32.6006	595.987
 219	3	1	-0.047272668179871455	6.4566	34.2757	595.0334
 220	3	1	-0.05225010779251273	5.2328	33.3552	594.9897
 221	3	1	-0.0478229954707022	5.4917	31.9534	594.4595
 222	3	1	-0.03206731720918835	6.4976	31.8591	593.2883
 223	3	1	-0.059624494273744805	5.7446	32.1901	591.976
 224	3	1	-0.059624494273744805	6.9296	30.3766	593.1932
 225	3	1	-0.030562947165444446	7.7106	32.8689	593.4234
 226	3	1	-0.04885870359535503	9.052	32.301	592.9414
 227	3	1	-0.04674159854045128	10.1066	33.3961	592.8348
 228	3	1	-0.023545958946429742	10.4163	34.1805	594.1481
 229	3	1	-0.05882504591720464	11.0818	33.1485	595.1043
 230	3	2	0.023036182875814888	20.0691	41.14	598.8272
 231	3	2	0.023036182875814888	18.4886	41.3071	598.0406
 232	3	2	0.023036182875814888	19.9535	41.1398	597.0583
 233	3	2	0.026372312840597434	20.2855	38.8287	597.8591
 234	3	2	0.026372312840597434	18.6993	39.0147	597.1046
 235	3	2	0.026644681887794307	19.2078	39.1703	600.1233
 236	3	2	0.026644681887794307	17.6348	39.2369	599.3525
 237	3	2	0.02665481777258361	18.0776	37.0119	600.3148
 238	3	2	0.02665481777258361	19.5831	36.8797	599.4202
 239	3	2	0.026665026399942025	18.3327	36.7755	597.2669
 240	3	2	0.026665026399942025	17.9418	35.4812	598.3883
 241	3	2	0.026938875417741284	16.23	37.9961	598.1341
 242	3	2	0.026938875417741284	15.8298	36.5314	599.0212
 243	3	2	0.030282508645508403	16.1711	36.8181	595.9988
 244	3	2	0.023329370519117997	15.2473	34.4082	595.9341
 245	3	2	0.023329370519117997	16.8747	34.5807	596.5579
 246	3	2	0.023329370519117997	15.5282	34.3412	597.679
 247	3	2	0.03085151519283527	14.1456	37.7904	597.371
 248	3	2	0.026980057557855843	13.2587	34.8866	597.1861
 249	3	2	0.026980057557855843	13.2367	35.9556	598.5795
 250	3	2	0.02724524747105678	11.3535	37.0666	597.819
 251	3	2	0.02724524747105678	11.1037	35.6187	596.8782
 252	3	2	0.02362415703745198	12.3586	39.1398	596.8804
 253	3	2	0.02362415703745198	10.6895	38.9261	596.3832
 254	3	2	0.02362415703745198	11.9071	39.4113	595.1939
 255	3	2	0.03113799271052979	13.9544	38.1539	595.1463
 256	3	2	0.026990585529226663	13.839	36.8409	593.3335
 257	3	2	0.026990585529226663	14.9262	35.9087	594.2988
 258	3	2	0.027255651648228418	13.328	34.3726	593.3788
 259	3	2	0.027255651648228418	13.0342	34.5251	595.0896
 260	3	2	0.023634344298360747	12.1456	36.6061	592.0454
 261	3	2	0.023634344298360747	10.4837	36.0865	591.9337
 262	3	2	0.023634344298360747	11.8174	34.9352	591.6847
 263	3	2	0.03142464541014992	11.3798	37.5906	593.772
 264	3	2	0.02699100009041915	9.4186	37.1829	595.8292
 265	3	2	0.02699100009041915	9.3554	38.0509	594.3185
 266	3	2	0.026991001473137915	8.6604	36.0157	593.1166
 267	3	2	0.026991001473137915	7.6886	36.3646	594.5289
 268	3	2	0.03142481659468552	9.2467	34.858	595.8549
 269	3	2	0.02362432628888263	7.1611	32.4267	596.576
 270	3	2	0.02362432628888263	8.4203	31.6223	595.6536
 271	3	2	0.02362432628888263	8.787	32.9867	596.7154
 272	3	2	0.027235182768327964	6.4604	34.8339	595.9782
 273	3	2	0.027235182768327964	6.277	35.0108	594.2409
 274	3	2	0.026695812139355034	4.4561	33.8324	594.3798
 275	3	2	0.026695812139355034	4.8031	33.2773	595.9961
 276	3	2	0.027214252392738836	4.5303	31.5032	594.1733
 277	3	2	0.027214252392738836	5.8414	31.3291	595.2912
 278	3	2	0.02360348016307181	4.9019	31.5087	591.8161
 279	3	2	0.02360348016307181	6.4071	32.1069	591.1082
 280	3	2	0.02360348016307181	5.3436	33.2097	591.9926
 281	3	2	0.02360348016307181	6.054	29.7171	593.1565
 282	3	2	0.02360348016307181	7.5135	30.1719	592.2899
 283	3	2	0.02360348016307181	7.5248	30.0756	594.0618
 284	3	2	0.03139380685746208	7.4919	33.6851	592.715
 285	3	2	0.02700043330128169	9.4057	31.4864	593.5794
 286	3	2	0.02700043330128169	8.9294	31.8768	591.9366
 287	3	2	0.027255821490419434	11.029	32.9465	592.4452
 288	3	2	0.027255821490419434	9.7355	34.0759	592.0615
 289	3	2	0.02363434430912457	10.4601	32.2777	595.3035
 290	3	2	0.02363434430912457	11.9968	32.7284	594.6725
 291	3	2	0.02363434430912457	11.3181	33.5885	596.0756
 292	4	1	-0.0653839431447439	15.2043	18.9737	1479.363
 293	4	1	-0.05617548784703076	15.4286	20.0016	1478.2642
 294	4	1	-0.053572328869722005	16.9104	20.3536	1478.1222
 295	4	1	-0.053309558049436066	17.1814	21.4751	1477.1131
 296	4	1	-0.053045554675122654	16.6718	21.2323	1475.6879
 297	4	1	-0.050439702119595156	17.3577	20.0549	1474.9859
 298	4	1	-0.0411553733921894	16.7054	19.6669	1473.6321
 299	4	1	-0.06223526948020563	16.6703	20.8733	1472.6857
 300	4	1	-0.03545904100171808	17.4216	18.4169	1473.0522
 301	4	1	-0.0493709427849443	18.6166	18.6793	1472.1419
 302	4	1	-0.04701817317609457	18.9024	17.3403	1471.4657
 303	4	1	-0.026105444353252003	17.6177	16.4787	1471.5674
 304	4	1	-0.059082189469500876	17.9149	15.2878	1472.5265
 305	4	1	-0.03261463038854838	16.5585	17.3874	1472.2737
 306	4	1	-0.04909447865170067	15.4753	17.9207	1471.3317
 307	4	1	-0.046751378189512395	15.9962	18.2128	1469.9314
 308	4	1	-0.023546304840402845	16.4866	16.9463	1469.1586
 309	4	1	-0.05882504879939484	15.1575	16.2403	1468.6833
 310	4	1	-0.029787727722895653	17.1229	15.9168	1470.1827
 311	4	1	-0.04907275804269185	18.0935	14.8994	1469.5624
 312	4	1	-0.0490725842134473	18.2378	14.9514	1468.0512
 313	4	1	-0.029778061191734404	18.6605	16.3656	1467.627
 314	4	1	-0.02588105105529642	19.4138	16.4414	1466.2015
 315	4	1	-0.059072499913443516	20.3795	17.6641	1466.2212
 316	4	1	-0.047272668179871455	20.2794	15.1713	1465.9364
 317	4	1	-0.05225010779251273	20.982	15.1102	1464.5764
 318	4	1	-0.0478229954707022	20.5297	16.1503	1463.5632
 319	4	1	-0.03206731720918835	19.0174	16.4748	1463.5711
 320	4	1	-0.059624494273744805	18.2851	15.3879	1462.7458
 321	4	1	-0.059624494273744805	18.846	17.8079	1462.8049
 322	4	1	-0.030562947165444446	18.389	16.4902	1465.0251
 323	4	1	-0.04885870359535503	17.3215	17.5726	1465.2322
 324	4	1	-0.04674159854045128	16.5665	17.3579	1466.5386
 325	4	1	-0.023545958946429742	17.4315	17.3499	1467.8376
 326	4	1	-0.05882504591720464	17.977	18.8001	1467.9853
 327	4	2	0.023036182875814888	15.5615	19.3434	1480.329
 328	4	2	0.023036182875814888	15.7279	18.0391	1479.1392
 329	4	2	0.023036182875814888	14.1363	18.7488	1479.4585
 330	4	2	0.026372312840597434	14.8491	20.9045	1478.4901
 331	4	2	0.026372312840597434	15.0437	19.5923	1477.3239
 332	4	2	0.026644681887794307	17.2952	20.6778	1479.0981
 333	4	2	0.026644681887794307	17.4803	19.4574	1477.8534
 334	4	2	0.02665481777258361	18.2617	21.6633	1477.0814
 335	4	2	0.02665481777258361	16.7188	22.3974	1477.4879
 336	4	2	0.026665026399942025	15.5858	21.0865	1475.6965
 337	4	2	0.026665026399942025	16.8584	22.1482	1475.1145
 338	4	2	0.026938875417741284	17.3222	19.1772	1475.6412
 339	4	2	0.026938875417741284	18.4187	20.2906	1474.8347
 340	4	2	0.030282508645508403	15.6693	19.3838	1473.8591
 341	4	2	0.023329370519117997	16.3338	20.6038	1471.6831
 342	4	2	0.023329370519117997	15.9737	21.6352	1473.0519
 343	4	2	0.023329370519117997	17.657	21.3403	1472.597
 344	4	2	0.03085151519283527	17.8121	17.8554	1473.9143
 345	4	2	0.026980057557855843	18.4023	19.4293	1471.379
 346	4	2	0.026980057557855843	19.485	19.035	1472.7046
 347	4	2	0.02724524747105678	19.7464	16.855	1471.9704
 348	4	2	0.02724524747105678	19.2247	17.503	1470.4368
 349	4	2	0.02362415703745198	18.2267	15.636	1473.5176
 350	4	2	0.02362415703745198	18.7194	14.6478	1472.154
 351	4	2	0.02362415703745198	17.0245	14.6627	1472.6636
 352	4	2	0.03113799271052979	16.0101	16.8097	1473.0329
 353	4	2	0.026990585529226663	14.6711	17.1787	1471.2737
 354	4	2	0.026990585529226663	14.9898	18.8097	1471.7435
 355	4	2	0.027255651648228418	15.2133	18.722	1469.3554
 356	4	2	0.027255651648228418	16.7938	18.9409	1470.0559
 357	4	2	0.023634344298360747	14.5139	15.9567	1469.5233
 358	4	2	0.023634344298360747	15.3555	15.3149	1468.1361
 359	4	2	0.023634344298360747	14.5426	16.8958	1468.058
 360	4	2	0.03142464541014992	16.2814	15.2788	1470.4996
 361	4	2	0.02699100009041915	19.0953	15.0188	1469.9902
 362	4	2	0.02699100009041915	17.7778	13.8866	1469.8425
 363	4	2	0.026991001473137915	17.3292	14.6272	1467.536
 364	4	2	0.026991001473137915	19.0021	14.2054	1467.8263
 365	4	2	0.03142481659468552	19.4266	16.6528	1468.3606
 366	4	2	0.02362432628888263	21.3737	17.4266	1465.8324
 367	4	2	0.02362432628888263	20.002	18.5049	1465.6343
 368	4	2	0.02362432628888263	20.5708	18.0251	1467.2374
 369	4	2	0.027235182768327964	21.0192	15.039	1466.7361
 370	4	2	0.027235182768327964	19.6402	14.2815	1465.9567
 371	4	2	0.026695812139355034	20.839	14.109	1464.1521
 372	4	2	0.026695812139355034	22.0645	15.2097	1464.7241
 373	4	2	0.027214252392738836	20.8444	15.8244	1462.5613
 374	4	2	0.027214252392738836	21.1008	17.0712	1463.7357
 375	4	2	0.02360348016307181	18.6643	15.3426	1461.7191
 376	4	2	0.02360348016307181	17.21	15.5887	1462.6934
 377	4	2	0.02360348016307181	18.4174	14.3944	1463.1886
 378	4	2	0.02360348016307181	19.3442	17.7632	1461.8288
 379	4	2	0.02360348016307181	17.7945	18.0414	1462.609
 380	4	2	0.02360348016307181	19.2869	18.6462	1463.3547
 381	4	2	0.03139380685746208	17.8338	15.5417	1465.1137
 382	4	2	0.02700043330128169	17.7455	18.5798	1465.1934
 383	4	2	0.02700043330128169	16.5821	17.5162	1464.423
 384	4	2	0.027255821490419434	15.789	18.1288	1466.6155
 385	4	2	0.027255821490419434	16.0507	16.4003	1466.4165
 386	4	2	0.02363434430912457	18.5579	19.1347	1467.128
 387	4	2	0.02363434430912457	17.1653	19.5322	1468.0583
 388	4	2	0.02363434430912457	18.6261	18.9029	1468.8577
 389	5	1	-0.0653839431447439	50.9972	41.1231	303.6847
 390	5	1	-0.05617548784703076	50.0258	42.1852	303.1921
 391	5	1	-0.053572328869722005	49.5225	41.8713	301.7822
 392	5	1	-0.053309558049436066	48.6357	42.9712	301.1876
 393	5	1	-0.053045554675122654	47.3912	43.3425	302.0019
 394	5	1	-0.050439702119595156	46.3756	42.2006	302.121
 395	5	1	-0.0411553733921894	45.2198	42.4918	303.1149
 396	5	1	-0.06223526948020563	44.4896	43.784	302.7284
 397	5	1	-0.03545904100171808	44.3021	41.2434	303.2213
 398	5	1	-0.0493709427849443	43.1367	41.1707	302.2405
 399	5	1	-0.04701817317609457	42.2363	40.0593	302.7751
 400	5	1	-0.026105444353252003	42.5786	39.8569	304.2735
 401	5	1	-0.059082189469500876	43.2496	38.4594	304.4266
 402	5	1	-0.03261463038854838	43.6673	40.9306	304.6034
 403	5	1	-0.04909447865170067	43.1457	42.103	305.439
 404	5	1	-0.046751378189512395	41.7071	42.4754	305.1083
 405	5	1	-0.023546304840402845	40.6671	41.3605	305.4507
 406	5	1	-0.05882504879939484	40.4939	41.4561	307.0165
 407	5	1	-0.029787727722895653	41.3263	39.9365	305.2237
 408	5	1	-0.04907275804269185	40.3298	38.7867	305.0069
 409	5	1	-0.0490725842134473	38.8594	39.1457	305.1351
 410	5	1	-0.029778061191734404	38.5251	40.2848	304.1608
 411	5	1	-0.02588105105529642	36.9688	40.3746	303.7423
 412	5	1	-0.059072499913443516	36.8792	40.9985	302.3173
 413	5	1	-0.047272668179871455	36.3061	38.9644	303.6735
 414	5	1	-0.05225010779251273	34.8082	38.9421	303.3531
 415	5	1	-0.0478229954707022	34.1092	40.2914	303.4159
 416	5	1	-0.03206731720918835	34.5833	41.2355	304.5458
 417	5	1	-0.059624494273744805	33.8597	40.8272	305.8528
 418	5	1	-0.059624494273744805	34.0795	42.6519	304.1805
 419	5	1	-0.030562947165444446	36.1438	41.1622	304.8079
 420	5	1	-0.04885870359535503	36.7831	42.514	305.1514
 421	5	1	-0.04674159854045128	38.2082	42.335	305.6611
 422	5	1	-0.023545958946429742	39.2	41.6224	304.6893
 423	5	1	-0.05882504591720464	39.3798	42.5956	303.4881
 424	5	2	0.023036182875814888	51.8646	41.0431	303.0225
 425	5	2	0.023036182875814888	50.5139	40.1425	303.7361
 426	5	2	0.023036182875814888	51.3572	41.3758	304.6881
 427	5	2	0.026372312840597434	50.5225	43.1625	303.2037
 428	5	2	0.026372312840597434	49.1853	42.2368	303.8927
 429	5	2	0.026644681887794307	50.3855	41.7374	301.1168
 430	5	2	0.026644681887794307	48.9885	40.9147	301.7834
 431	5	2	0.02665481777258361	48.328	42.6655	300.18
 432	5	2	0.02665481777258361	49.2438	43.8765	301.0626
 433	5	2	0.026665026399942025	47.6842	43.6931	302.9979
 434	5	2	0.026665026399942025	46.9152	44.1934	301.4999
 435	5	2	0.026938875417741284	46.8923	41.2957	302.4604
 436	5	2	0.026938875417741284	45.9659	41.9742	301.1285
 437	5	2	0.030282508645508403	45.6882	42.6475	304.0955
 438	5	2	0.023329370519117997	43.5948	43.9505	303.3307
 439	5	2	0.023329370519117997	45.1338	44.6564	302.883
 440	5	2	0.023329370519117997	44.1908	43.7741	301.6748
 441	5	2	0.03085151519283527	44.9381	40.3718	303.0049
 442	5	2	0.026980057557855843	42.5708	42.1025	302.1963
 443	5	2	0.026980057557855843	43.4756	40.9542	301.2229
 444	5	2	0.02724524747105678	42.4156	39.1429	302.2001
 445	5	2	0.02724524747105678	41.1893	40.3147	302.6091
 446	5	2	0.02362415703745198	44.1507	38.3747	303.8089
 447	5	2	0.02362415703745198	42.5852	37.6464	304.1215
 448	5	2	0.02362415703745198	43.5464	38.2785	305.4664
 449	5	2	0.03113799271052979	44.4661	40.4843	305.2145
 450	5	2	0.026990585529226663	43.2174	41.832	306.4983
 451	5	2	0.026990585529226663	43.7909	42.9806	305.343
 452	5	2	0.027255651648228418	41.4462	43.4033	305.6326
 453	5	2	0.027255651648228418	41.6986	42.7206	304.0493
 454	5	2	0.023634344298360747	41.4352	41.2851	307.5503
 455	5	2	0.023634344298360747	39.7955	40.7076	307.4002
 456	5	2	0.023634344298360747	40.1585	42.4484	307.335
 457	5	2	0.03142464541014992	41.7787	39.6779	306.1954
 458	5	2	0.02699100009041915	40.4718	38.3414	304.0157
 459	5	2	0.02699100009041915	40.5504	37.9825	305.7199
 460	5	2	0.026991001473137915	38.5811	39.3952	306.1629
 461	5	2	0.026991001473137915	38.3327	38.2219	304.8891
 462	5	2	0.03142481659468552	39.0461	40.0117	303.2327
 463	5	2	0.02362432628888263	36.1995	40.453	301.6566
 464	5	2	0.02362432628888263	36.5383	42.0365	302.3357
 465	5	2	0.02362432628888263	37.8396	40.9715	301.7916
 466	5	2	0.027235182768327964	36.8418	38.3246	302.9607
 467	5	2	0.027235182768327964	36.3865	38.4738	304.65
 468	5	2	0.026695812139355034	34.312	38.2479	304.0422
 469	5	2	0.026695812139355034	34.6586	38.5141	302.3541
 470	5	2	0.027214252392738836	33.0254	40.1222	303.4903
 471	5	2	0.027214252392738836	34.2353	40.7907	302.4471
 472	5	2	0.02360348016307181	32.7713	40.8777	305.7395
 473	5	2	0.02360348016307181	34.1376	41.4871	306.6812
 474	5	2	0.02360348016307181	34.112	39.8016	306.1446
 475	5	2	0.02360348016307181	33.006	42.6379	303.9561
 476	5	2	0.02360348016307181	34.2187	43.3655	304.9991
 477	5	2	0.02360348016307181	34.5898	43.0431	303.294
 478	5	2	0.03139380685746208	36.2579	40.5668	305.729
 479	5	2	0.02700043330128169	36.7609	43.2054	304.3044
 480	5	2	0.02700043330128169	36.2133	42.9933	305.9578
 481	5	2	0.027255821490419434	38.6012	43.323	305.9333
 482	5	2	0.027255821490419434	38.1097	41.7671	306.5915
 483	5	2	0.02363434430912457	38.4463	42.8424	302.986
 484	5	2	0.02363434430912457	39.7735	43.5661	303.8092
 485	5	2	0.02363434430912457	40.0411	42.1801	302.7244
 486	6	1	-0.0653839431447439	28.1315	15.4793	888.1445
 487	6	1	-0.05617548784703076	29.2021	14.7344	887.3614
 488	6	1	-0.053572328869722005	30.3625	14.3119	888.264
 489	6	1	-0.053309558049436066	31.5268	13.665	887.5052
 490	6	1	-0.053045554675122654	31.1776	12.429	886.6685
 491	6	1	-0.050439702119595156	30.6969	11.2392	887.5069