ITEM: TIMESTEP
0
ITEM: NUMBER OF ATOMS
900
ITEM: BOX BOUNDS pp pp pp
0.0000000000000000e+00 2.1989592999999999e+01
0.0000000000000000e+00 2.1989592999999999e+01
0.0000000000000000e+00 2.1989592920000000e+03
ITEM: ATOMS id mol type q xs ys zs
446 25 1 0.0629322 0.58349 0.579892 0.0358855
434 25 2 -0.0616365 0.63928 0.756622 0.0360415
435 25 2 -0.0543881 0.617756 0.697575 0.0359522
444 25 1 0.0622985 0.624814 0.792984 0.0357395
445 25 1 0.0629322 0.586564 0.688876 0.0355784
436 25 2 -0.018412 0.635951 0.650017 0.0363377
437 25 2 -0.0543881 0.614732 0.590361 0.0362543
438 25 2 -0.0616365 0.633268 0.543612 0.0366417
447 25 1 0.0622985 0.616483 0.497654 0.0365718
439 25 2 -0.0616365 0.673223 0.555877 0.037117
440 25 2 -0.0543881 0.694747 0.614927 0.0372062
441 25 2 -0.018412 0.676547 0.662482 0.0368207
448 25 1 0.0622985 0.687689 0.519518 0.0374189
449 25 1 0.0629322 0.725934 0.623627 0.0375801
433 25 2 -0.0616365 0.67923 0.768891 0.0365168
442 25 2 -0.0543881 0.697771 0.722142 0.0369041
443 25 1 0.0622985 0.69602 0.814845 0.0365867
450 25 1 0.0629322 0.729008 0.73261 0.037273
739 42 2 -0.0616365 0.0374908 0.241883 0.0514793
748 42 2 -0.0543881 0.0502832 0.303525 0.0515605
749 42 1 0.0622985 0.0683554 0.213515 0.0512175
756 42 1 0.0629322 0.0913299 0.322302 0.0513584
740 42 2 -0.0616365 0.985234 0.216793 0.0517335
741 42 2 -0.0543881 0.945634 0.253283 0.0520696
742 42 2 -0.018412 0.95783 0.315381 0.0521557
750 42 1 0.0622985 0.97523 0.168803 0.0516705
751 42 1 0.0629322 0.905033 0.23286 0.0522647
746 42 2 -0.0543881 0.0231158 0.402968 0.0519835
747 42 2 -0.018412 0.0109191 0.34087 0.0518975
755 42 1 0.0629322 0.0637168 0.423391 0.0517885
743 42 2 -0.0543881 0.918466 0.352726 0.0524926
744 42 2 -0.0616365 0.931259 0.414369 0.0525739
745 42 2 -0.0616365 0.983515 0.439458 0.0523197
754 42 1 0.0622985 0.993525 0.487444 0.0523827
752 42 1 0.0629322 0.87742 0.333944 0.0526947
753 42 1 0.0622985 0.900394 0.442732 0.0528357
196 11 1 0.0622985 0.291274 0.489545 0.0675289
197 11 1 0.0629322 0.3169 0.598579 0.0675699
181 11 2 -0.0616365 0.490591 0.664642 0.0674937
182 11 2 -0.0616365 0.536426 0.621303 0.0674417
183 11 2 -0.0543881 0.521656 0.55961 0.0674187
184 11 2 -0.018412 0.460786 0.540483 0.0674475
185 11 2 -0.0543881 0.445142 0.478604 0.067425
186 11 2 -0.0616365 0.384409 0.460359 0.0674542
187 11 2 -0.0616365 0.338574 0.503697 0.0675062
188 11 2 -0.0543881 0.353344 0.56539 0.0675292
189 11 2 -0.018412 0.414214 0.584517 0.0675004
190 11 2 -0.0543881 0.429858 0.646397 0.0675229
192 11 1 0.0622985 0.583726 0.635455 0.0674189
193 11 1 0.0629322 0.558096 0.526422 0.0673781
194 11 1 0.0629322 0.480323 0.444078 0.0673844
195 11 1 0.0622985 0.372963 0.412313 0.0674363
191 11 1 0.0622985 0.502037 0.712687 0.0675116
198 11 1 0.0629322 0.394678 0.680922 0.0675635
307 18 2 -0.0616365 0.870867 0.152704 0.0974655
308 18 2 -0.0616365 0.923059 0.155665 0.0978223
309 18 2 -0.0543881 0.922796 0.189217 0.0983612
310 18 2 -0.018412 0.870266 0.220254 0.0985499
314 18 2 -0.0543881 0.764707 0.248286 0.0983761
315 18 2 -0.018412 0.817237 0.217248 0.0981874
316 18 2 -0.0543881 0.818269 0.183287 0.0976466
317 18 1 0.0622985 0.871017 0.126592 0.0970459
318 18 1 0.0622985 0.964033 0.131871 0.0976818
319 18 1 0.0629322 0.964015 0.190995 0.0986339
323 18 1 0.0629322 0.723488 0.246508 0.0981034
324 18 1 0.0629322 0.777936 0.18044 0.0973618
311 18 2 -0.0543881 0.869229 0.254211 0.0990907
312 18 2 -0.0616365 0.816632 0.284798 0.0992718
313 18 2 -0.0616365 0.764439 0.281838 0.098915
320 18 1 0.0629322 0.909562 0.257063 0.0993756
321 18 1 0.0622985 0.816482 0.310906 0.0996915
322 18 1 0.0622985 0.723465 0.305631 0.0990555
588 33 1 0.0622985 0.463542 0.625023 0.11377
577 33 2 -0.0616365 0.487944 0.694683 0.113127
578 33 2 -0.0616365 0.486917 0.668016 0.113701
579 33 2 -0.0543881 0.515926 0.696507 0.114188
580 33 2 -0.018412 0.546354 0.752078 0.114108
581 33 2 -0.0543881 0.575763 0.781342 0.114593
582 33 2 -0.0616365 0.605805 0.836564 0.114505
583 33 2 -0.0616365 0.606833 0.863231 0.113931
584 33 2 -0.0543881 0.577823 0.834745 0.113444
585 33 2 -0.018412 0.5474 0.779173 0.113524
586 33 2 -0.0543881 0.517986 0.749909 0.113039
587 33 1 0.0622985 0.465375 0.672545 0.112747
589 33 1 0.0629322 0.51463 0.674974 0.114633
590 33 1 0.0629322 0.575454 0.761206 0.115045
591 33 1 0.0622985 0.628375 0.858706 0.114885
592 33 1 0.0622985 0.630207 0.906229 0.113862
593 33 1 0.0629322 0.579124 0.856278 0.112999
594 33 1 0.0629322 0.518295 0.770042 0.112587
83 5 1 0.0622985 0.024521 0.91069 0.129821
84 5 1 0.0622985 0.01096 0.798873 0.129759
73 5 2 -0.0616365 0.98176 0.891785 0.12966
74 5 2 -0.0616365 0.974152 0.829047 0.129626
75 5 2 -0.0543881 0.919203 0.80484 0.12942
76 5 2 -0.018412 0.871135 0.843126 0.129246
77 5 2 -0.0543881 0.815563 0.819515 0.129038
78 5 2 -0.0616365 0.768241 0.858211 0.128866
79 5 2 -0.0616365 0.775849 0.920954 0.128901
80 5 2 -0.0543881 0.830798 0.945161 0.129107
81 5 2 -0.018412 0.878866 0.906874 0.129281
82 5 2 -0.0543881 0.934437 0.930481 0.129489
85 5 1 0.0629322 0.914114 0.755698 0.129396
86 5 1 0.0629322 0.808764 0.770624 0.129007
87 5 1 0.0622985 0.72548 0.839311 0.128706
88 5 1 0.0622985 0.739036 0.951123 0.128768
89 5 1 0.0629322 0.835886 0.994298 0.129131
90 5 1 0.0629322 0.941236 0.979377 0.129519
487 28 2 -0.0616365 0.231996 0.235543 0.161093
488 28 2 -0.0616365 0.190708 0.277941 0.160868
489 28 2 -0.0543881 0.204729 0.31137 0.160347
490 28 2 -0.018412 0.260278 0.302789 0.160044
492 28 2 -0.0616365 0.330506 0.326955 0.159223
495 28 2 -0.018412 0.302225 0.259714 0.160272
496 28 2 -0.0543881 0.287409 0.226462 0.160797
498 28 1 0.0622985 0.147552 0.285053 0.161099
504 28 1 0.0629322 0.319087 0.193137 0.160979
493 28 2 -0.0616365 0.37179 0.284557 0.159448
494 28 2 -0.0543881 0.357774 0.251132 0.159969
502 28 1 0.0622985 0.414951 0.277445 0.159218
503 28 1 0.0629322 0.390608 0.218212 0.160137
491 28 2 -0.0543881 0.275089 0.336036 0.159519
499 28 1 0.0629322 0.17189 0.34429 0.160179
500 28 1 0.0629322 0.243415 0.369366 0.159337
501 28 1 0.0622985 0.341371 0.353008 0.158818
497 28 1 0.0622985 0.221132 0.209495 0.161499
844 47 1 0.0622985 0.0991969 0.64541 0.174079
843 47 1 0.0622985 0.145719 0.748168 0.174076
836 47 2 -0.0543881 0.0879871 0.643086 0.175052
838 47 2 -0.0543881 0.0784871 0.647688 0.176162
839 47 1 0.0622985 0.07303 0.658079 0.177135
845 47 1 0.0629322 0.0676684 0.598001 0.175044
846 47 1 0.0629322 0.0580138 0.602681 0.176172
829 47 2 -0.0616365 0.0868866 0.678867 0.176708
830 47 2 -0.0616365 0.11299 0.736526 0.176707
831 47 2 -0.0543881 0.130766 0.763161 0.176159
832 47 2 -0.018412 0.122635 0.732419 0.175605
833 47 2 -0.0543881 0.140266 0.758559 0.175049
834 47 2 -0.0616365 0.131867 0.727385 0.174503
835 47 2 -0.0616365 0.105759 0.669726 0.174504
837 47 2 -0.018412 0.0961136 0.673832 0.175606
840 47 1 0.0622985 0.119552 0.760842 0.177132
841 47 1 0.0629322 0.151081 0.808246 0.176166
842 47 1 0.0629322 0.16074 0.803571 0.175039
239 14 2 -0.0543881 0.501351 0.40576 0.190566
240 14 2 -0.0616365 0.488486 0.455215 0.190189
241 14 2 -0.0616365 0.52036 0.509446 0.190259
242 14 2 -0.0543881 0.565186 0.514366 0.190706
248 14 1 0.0629322 0.475966 0.363763 0.190504
249 14 1 0.0622985 0.453574 0.451327 0.189841
250 14 1 0.0622985 0.510387 0.547977 0.189966
251 14 1 0.0629322 0.589611 0.557109 0.190753
246 14 1 0.0622985 0.614613 0.327023 0.19214
247 14 1 0.0629322 0.53539 0.317891 0.191352
235 14 2 -0.0616365 0.636515 0.419785 0.191917
236 14 2 -0.0616365 0.604641 0.365555 0.191847
237 14 2 -0.0543881 0.55981 0.360634 0.1914
238 14 2 -0.018412 0.546304 0.409948 0.191017
243 14 2 -0.018412 0.578692 0.465052 0.191088
244 14 2 -0.0543881 0.62365 0.46924 0.19154
252 14 1 0.0629322 0.649034 0.511237 0.191602
245 14 1 0.0622985 0.671427 0.423673 0.192264
411 23 1 0.0622985 0.237485 0.838738 0.220324
397 23 2 -0.0616365 0.201113 0.840079 0.223085
398 23 2 -0.0616365 0.172204 0.789023 0.222847
399 23 2 -0.0543881 0.173655 0.777932 0.222222
400 23 2 -0.018412 0.204065 0.817814 0.221827
401 23 2 -0.0543881 0.205957 0.807323 0.221197
402 23 2 -0.0616365 0.236389 0.847424 0.22081
403 23 2 -0.0616365 0.265294 0.898475 0.221048
404 23 2 -0.0543881 0.263848 0.909571 0.221673
405 23 2 -0.018412 0.233433 0.869689 0.222068
406 23 2 -0.0543881 0.231541 0.880175 0.222698
407 23 1 0.0622985 0.200017 0.848761 0.223571
408 23 1 0.0622985 0.148498 0.757772 0.223148
409 23 1 0.0629322 0.150803 0.737799 0.222045
410 23 1 0.0629322 0.183641 0.767677 0.221003
412 23 1 0.0622985 0.289 0.929726 0.220747
413 23 1 0.0629322 0.286695 0.949699 0.22185
414 23 1 0.0629322 0.253861 0.919821 0.222892
631 36 2 -0.0616365 0.432959 0.0771592 0.236441
632 36 2 -0.0616365 0.388939 0.0482501 0.236792
640 36 2 -0.0543881 0.460459 0.130353 0.236651
641 36 1 0.0622985 0.445956 0.0583503 0.236003
642 36 1 0.0622985 0.367497 0.00683505 0.236628
648 36 1 0.0629322 0.494761 0.152286 0.236371
633 36 2 -0.0543881 0.372294 0.0724616 0.237355
634 36 2 -0.018412 0.399512 0.125941 0.237573
635 36 2 -0.0543881 0.38329 0.150899 0.238138
636 36 2 -0.0616365 0.41079 0.204092 0.238349
637 36 2 -0.0616365 0.454815 0.232997 0.237998
638 36 2 -0.0543881 0.471459 0.20879 0.237435
639 36 2 -0.018412 0.444242 0.15531 0.237217
643 36 1 0.0629322 0.337805 0.0492324 0.237622
644 36 1 0.0629322 0.348988 0.128961 0.238419
645 36 1 0.0622985 0.397793 0.222901 0.238787
646 36 1 0.0622985 0.476253 0.274416 0.238162
647 36 1 0.0629322 0.505944 0.232019 0.237167
53 3 1 0.0629322 0.291747 0.654246 0.252133
54 3 1 0.0629322 0.20135 0.63365 0.252784
40 3 2 -0.018412 0.250982 0.780224 0.252952
41 3 2 -0.0543881 0.296404 0.819701 0.252738
44 3 2 -0.0543881 0.292525 0.700559 0.252307
45 3 2 -0.018412 0.249018 0.719777 0.252733
46 3 2 -0.0543881 0.203596 0.680299 0.252947
50 3 1 0.0629322 0.29865 0.866346 0.2529
42 3 2 -0.0616365 0.339311 0.799874 0.252314
43 3 2 -0.0616365 0.337373 0.740382 0.252099
51 3 1 0.0622985 0.374204 0.83092 0.252152
52 3 1 0.0622985 0.370757 0.724893 0.251769
37 3 2 -0.0616365 0.16069 0.700127 0.253371
38 3 2 -0.0616365 0.162627 0.759618 0.253586
39 3 2 -0.0543881 0.207475 0.799442 0.253378
47 3 1 0.0622985 0.125796 0.66908 0.253532
48 3 1 0.0622985 0.129243 0.775108 0.253916
49 3 1 0.0629322 0.208253 0.84575 0.253551
849 48 2 -0.0543881 0.0340161 0.300178 0.267999
850 48 2 -0.018412 0.0791192 0.266494 0.268301
851 48 2 -0.0543881 0.12616 0.295194 0.268623
852 48 2 -0.0616365 0.170644 0.261033 0.268921
853 48 2 -0.0616365 0.168684 0.197807 0.268899
854 48 2 -0.0543881 0.122235 0.168571 0.26858
855 48 2 -0.018412 0.0771274 0.202255 0.268279
856 48 2 -0.0543881 0.030087 0.173559 0.267956
861 48 1 0.0622985 0.206784 0.283848 0.269169
862 48 1 0.0622985 0.203292 0.171163 0.269131
863 48 1 0.0629322 0.121462 0.119134 0.268569
864 48 1 0.0629322 0.027795 0.124204 0.267934
847 48 2 -0.0616365 0.985607 0.207716 0.267658
848 48 2 -0.0616365 0.987567 0.270942 0.26768
857 48 1 0.0622985 0.949467 0.184901 0.26741
858 48 1 0.0622985 0.95296 0.297586 0.267449
859 48 1 0.0629322 0.0347892 0.34962 0.268011
860 48 1 0.0629322 0.128452 0.344549 0.268645
464 26 1 0.0629322 0.929558 0.42662 0.282513
465 26 1 0.0622985 0.837314 0.490277 0.282515
462 26 1 0.0622985 0.0349441 0.309178 0.284011
461 26 1 0.0622985 0.975184 0.322221 0.284959
463 26 1 0.0629322 0.00248786 0.359793 0.283065
451 26 2 -0.0616365 0.960759 0.344599 0.284542
452 26 2 -0.0616365 0.994289 0.337282 0.28401
453 26 2 -0.0543881 0.975698 0.36605 0.283476
454 26 2 -0.018412 0.923287 0.402531 0.283467
455 26 2 -0.0543881 0.903955 0.431795 0.282933
456 26 2 -0.0616365 0.851744 0.467903 0.282932
457 26 2 -0.0616365 0.81821 0.47522 0.283464
458 26 2 -0.0543881 0.8368 0.446448 0.283998
459 26 2 -0.018412 0.889216 0.409967 0.284007
460 26 2 -0.0543881 0.908548 0.380707 0.284541
466 26 1 0.0622985 0.777554 0.50332 0.283463
467 26 1 0.0629322 0.81001 0.45271 0.284409
468 26 1 0.0629322 0.88294 0.385883 0.284961
727 41 2 -0.0616365 0.634555 0.614886 0.298744
728 41 2 -0.0543881 0.658407 0.557637 0.298879
736 41 1 0.0622985 0.589192 0.618802 0.298552
737 41 1 0.0629322 0.630908 0.517527 0.298789
724 41 2 -0.018412 0.75181 0.604545 0.299241
725 41 2 -0.0543881 0.727135 0.661795 0.299102
729 41 2 -0.018412 0.716939 0.551702 0.299128
730 41 2 -0.0543881 0.741614 0.494457 0.299267
738 41 1 0.0629322 0.715488 0.453301 0.299183
735 41 1 0.0622985 0.650353 0.711491 0.29875
726 41 2 -0.0616365 0.668875 0.666897 0.298855
734 41 1 0.0629322 0.753261 0.702946 0.299185
721 41 2 -0.0616365 0.799874 0.489354 0.299514
722 41 2 -0.0616365 0.834195 0.541365 0.299625
723 41 2 -0.0543881 0.810342 0.59861 0.299489
731 41 1 0.0622985 0.818396 0.44476 0.299619
732 41 1 0.0622985 0.879562 0.53745 0.299817
733 41 1 0.0629322 0.837842 0.638725 0.299579
127 8 2 -0.0616365 0.104468 0.310388 0.313834
128 8 2 -0.0616365 0.155433 0.284594 0.313562
129 8 2 -0.0543881 0.209567 0.279118 0.313889
130 8 2 -0.018412 0.213392 0.299396 0.314493
131 8 2 -0.0543881 0.267495 0.294226 0.314829
132 8 2 -0.0616365 0.270533 0.314612 0.315429
135 8 2 -0.018412 0.161608 0.325604 0.31477
136 8 2 -0.0543881 0.107505 0.330775 0.314435
137 8 1 0.0622985 0.0622977 0.314676 0.31358
138 8 1 0.0622985 0.153127 0.268704 0.313094
139 8 1 0.0629322 0.248904 0.258841 0.313668
140 8 1 0.0629322 0.307791 0.274198 0.314623
141 8 1 0.0622985 0.312702 0.310324 0.315683
133 8 2 -0.0616365 0.219568 0.340406 0.315702
134 8 2 -0.0543881 0.165433 0.345882 0.315375
143 8 1 0.0629322 0.126096 0.36616 0.315595
144 8 1 0.0629322 0.0672091 0.350802 0.31464
142 8 1 0.0622985 0.221873 0.356296 0.316169
294 17 2 -0.0616365 0.497772 0.0237797 0.345208
295 17 2 -0.0616365 0.540433 0.0688965 0.345331
303 17 1 0.0622985 0.452241 0.0361174 0.345061
304 17 1 0.0622985 0.528273 0.116524 0.345279
293 17 2 -0.0543881 0.513457 0.962628 0.345274
302 17 1 0.0629322 0.479509 0.928025 0.345176
296 17 2 -0.0543881 0.598897 0.0529754 0.34552
305 17 1 0.0629322 0.631612 0.0888651 0.345614
306 17 1 0.0629322 0.707994 0.00947298 0.345877
290 17 2 -0.0616365 0.647065 0.868606 0.345722
291 17 2 -0.0543881 0.588601 0.884523 0.345533
292 17 2 -0.018412 0.572075 0.945829 0.345464
297 17 2 -0.018412 0.615423 0.991669 0.345589
300 17 1 0.0622985 0.659225 0.820979 0.345774
301 17 1 0.0629322 0.55589 0.848633 0.345439
289 17 2 -0.0616365 0.689731 0.913719 0.345845
298 17 2 -0.0543881 0.674042 0.974875 0.345779
299 17 1 0.0622985 0.735261 0.901381 0.345992
605 34 1 0.0622985 0.649876 0.0312375 0.360275
595 34 2 -0.0616365 0.694019 0.0185179 0.360457
600 34 2 -0.0616365 0.89973 0.0127333 0.36149
601 34 2 -0.0616365 0.877529 0.071361 0.361577
602 34 2 -0.0543881 0.820825 0.0876278 0.361343
603 34 2 -0.018412 0.785594 0.0454078 0.361018
604 34 2 -0.0543881 0.728463 0.0610334 0.360779
609 34 1 0.0622985 0.943874 1.36428e-05 0.361673
610 34 1 0.0622985 0.904305 0.104499 0.361828
611 34 1 0.0629322 0.804244 0.133654 0.361416
612 34 1 0.0629322 0.710354 0.106619 0.360843
596 34 2 -0.0616365 0.716221 0.95989 0.36037
597 34 2 -0.0543881 0.772925 0.943619 0.360605
598 34 2 -0.018412 0.808155 0.985839 0.36093
599 34 2 -0.0543881 0.865287 0.970218 0.361168
606 34 1 0.0622985 0.689444 0.926752 0.36012
607 34 1 0.0629322 0.789505 0.897597 0.360532
608 34 1 0.0629322 0.883395 0.924633 0.361105
92 6 2 -0.0616365 0.617506 0.188726 0.377377
93 6 2 -0.0543881 0.577728 0.17602 0.376899
94 6 2 -0.018412 0.595523 0.137838 0.376419
95 6 2 -0.0543881 0.556063 0.124591 0.375934
96 6 2 -0.0616365 0.574463 0.0865455 0.375461
97 6 2 -0.0616365 0.632495 0.0612744 0.375465
99 6 2 -0.018412 0.654478 0.112162 0.376423
102 6 1 0.0622985 0.603131 0.218353 0.377746
103 6 1 0.0629322 0.53257 0.196188 0.376903
104 6 1 0.0629322 0.510546 0.143909 0.375923
105 6 1 0.0622985 0.543453 0.0766863 0.375089
106 6 1 0.0622985 0.64687 0.0316468 0.375097
91 6 2 -0.0616365 0.675538 0.163455 0.377381
98 6 2 -0.0543881 0.672273 0.0739805 0.375943
100 6 2 -0.0543881 0.693937 0.125409 0.376908
101 6 1 0.0622985 0.706548 0.173314 0.377753
107 6 1 0.0629322 0.71743 0.0538118 0.375939
108 6 1 0.0629322 0.739454 0.106091 0.376919
541 31 2 -0.0616365 0.109443 0.494952 0.406553
542 31 2 -0.0616365 0.0731073 0.444756 0.406682
543 31 2 -0.0543881 0.02508 0.450086 0.407093
544 31 2 -0.018412 0.0127924 0.505748 0.407381
548 31 2 -0.0543881 0.0374177 0.612417 0.407538
549 31 2 -0.018412 0.0497099 0.55675 0.40725
550 31 2 -0.0543881 0.0978417 0.55061 0.406835
551 31 1 0.0622985 0.146847 0.490859 0.406232
552 31 1 0.0622985 0.0820979 0.401399 0.406462
557 31 1 0.0629322 0.0653082 0.65214 0.407443
558 31 1 0.0629322 0.126728 0.58932 0.406729
545 31 2 -0.0543881 0.964656 0.511888 0.407797
553 31 1 0.0629322 0.997194 0.410358 0.407188
546 31 2 -0.0616365 0.95306 0.567546 0.408079
547 31 2 -0.0616365 0.98939 0.617742 0.40795
554 31 1 0.0629322 0.935774 0.473178 0.407903
555 31 1 0.0622985 0.915651 0.571639 0.408399
556 31 1 0.0622985 0.980404 0.661099 0.40817
788 44 1 0.0629322 0.342958 0.328283 0.422673
780 44 2 -0.0616365 0.320897 0.385519 0.421914
781 44 2 -0.0616365 0.318755 0.444633 0.421689
789 44 1 0.0622985 0.30645 0.347696 0.421631
790 44 1 0.0622985 0.302639 0.453051 0.42123
775 44 2 -0.0616365 0.397852 0.520733 0.423612
776 44 2 -0.0616365 0.399994 0.461618 0.423837
777 44 2 -0.0543881 0.381426 0.413082 0.423473
778 44 2 -0.018412 0.360461 0.423096 0.422878
779 44 2 -0.0543881 0.341612 0.374782 0.422505
782 44 2 -0.0543881 0.337328 0.49317 0.422054
783 44 2 -0.018412 0.358288 0.483156 0.422649
784 44 2 -0.0543881 0.377137 0.53147 0.423022
785 44 1 0.0622985 0.4123 0.558555 0.423895
786 44 1 0.0622985 0.416115 0.453201 0.424297
787 44 1 0.0629322 0.383427 0.367215 0.423656
791 44 1 0.0629322 0.335327 0.539037 0.42187
792 44 1 0.0629322 0.375791 0.577969 0.422854
229 13 1 0.0629322 0.74397 0.662486 0.43718
230 13 1 0.0629322 0.837173 0.725093 0.437031
231 13 1 0.0622985 0.927825 0.775471 0.437456
217 13 2 -0.0616365 0.727562 0.624555 0.438666
218 13 2 -0.0616365 0.715261 0.628083 0.438047
219 13 2 -0.0543881 0.754334 0.66024 0.437663
226 13 2 -0.0543881 0.778973 0.653173 0.438905
227 13 1 0.0622985 0.697175 0.599529 0.438965
228 13 1 0.0622985 0.675251 0.605818 0.437861
234 13 1 0.0629322 0.787827 0.649907 0.43939
220 13 2 -0.018412 0.80625 0.689294 0.437896
221 13 2 -0.0543881 0.846027 0.721828 0.437516
222 13 2 -0.0616365 0.897438 0.750446 0.437755
223 13 2 -0.0616365 0.909739 0.746917 0.438375
224 13 2 -0.0543881 0.870666 0.714761 0.438758
225 13 2 -0.018412 0.818751 0.685706 0.438525
232 13 1 0.0622985 0.949749 0.769182 0.438561
233 13 1 0.0629322 0.88103 0.712514 0.439241
343 20 2 -0.0616365 0.513666 0.194833 0.468786
344 20 2 -0.0616365 0.489709 0.203946 0.469365
345 20 2 -0.0543881 0.461341 0.156047 0.46967
346 20 2 -0.018412 0.45658 0.0983784 0.469399
347 20 2 -0.0543881 0.428184 0.0497053 0.4697
350 20 2 -0.0543881 0.476157 0.0314558 0.468541
351 20 2 -0.018412 0.480918 0.0891194 0.468811
352 20 2 -0.0543881 0.509314 0.137792 0.468511
353 20 1 0.0622985 0.535763 0.232087 0.468548
354 20 1 0.0622985 0.49307 0.248336 0.469579
355 20 1 0.0629322 0.4429 0.164046 0.470122
356 20 1 0.0629322 0.409198 0.0559492 0.470152
359 20 1 0.0629322 0.494602 0.0234566 0.468089
360 20 1 0.0629322 0.528304 0.131549 0.468058
348 20 2 -0.0616365 0.423837 0.992669 0.469425
349 20 2 -0.0616365 0.447789 0.983556 0.468846
357 20 1 0.0622985 0.40174 0.955411 0.469663
358 20 1 0.0622985 0.444428 0.939167 0.468631
695 39 1 0.0622985 0.15079 0.0216879 0.485507
696 39 1 0.0622985 0.0655492 0.0128564 0.484774
685 39 2 -0.0616365 0.149839 0.984448 0.485182
686 39 2 -0.0616365 0.102012 0.979495 0.484771
687 39 2 -0.0543881 0.100852 0.931641 0.484354
688 39 2 -0.018412 0.147574 0.888106 0.484344
689 39 2 -0.0543881 0.14711 0.839688 0.483927
690 39 2 -0.0616365 0.19391 0.7968 0.483923
691 39 2 -0.0616365 0.241742 0.801757 0.484334
692 39 2 -0.0543881 0.242897 0.849611 0.484751
693 39 2 -0.018412 0.196175 0.893141 0.484762
694 39 2 -0.0543881 0.196643 0.941564 0.485178
697 39 1 0.0629322 0.0631026 0.928526 0.484036
698 39 1 0.0629322 0.11012 0.835054 0.483602
699 39 1 0.0622985 0.192959 0.759564 0.483598
700 39 1 0.0622985 0.278204 0.768395 0.484332
701 39 1 0.0629322 0.280646 0.852726 0.485069
702 39 1 0.0629322 0.233629 0.946193 0.485503
1 1 2 -0.0616365 0.609361 0.464442 0.499944
2 1 2 -0.0616365 0.611667 0.527681 0.499957
3 1 2 -0.0543881 0.557937 0.561343 0.499987
9 1 2 -0.018412 0.498827 0.467871 0.499994
10 1 2 -0.0543881 0.553312 0.434692 0.499963
11 1 1 0.0622985 0.651163 0.438185 0.49992
12 1 1 0.0622985 0.655278 0.550892 0.499942
13 1 1 0.0629322 0.560656 0.610716 0.499997
18 1 1 0.0629322 0.552425 0.385255 0.499953
4 1 2 -0.018412 0.501173 0.532129 0.500006
5 1 2 -0.0543881 0.446689 0.565308 0.500037
6 1 2 -0.0616365 0.390639 0.535558 0.500056
7 1 2 -0.0616365 0.388329 0.472319 0.500043
8 1 2 -0.0543881 0.442064 0.438658 0.500013
14 1 1 0.0629322 0.447575 0.614745 0.500047
15 1 1 0.0622985 0.348838 0.561816 0.50008
16 1 1 0.0622985 0.344722 0.449108 0.500058
17 1 1 0.0629322 0.43934 0.389284 0.500003
883 50 2 -0.0616365 0.839488 0.585841 0.514915
884 50 2 -0.0616365 0.897766 0.561384 0.51495
885 50 2 -0.0543881 0.906865 0.504802 0.515223
886 50 2 -0.018412 0.857728 0.471951 0.515465
887 50 2 -0.0543881 0.866092 0.414974 0.515741
888 50 2 -0.0616365 0.816764 0.382908 0.515979
889 50 2 -0.0616365 0.758486 0.407365 0.515945
890 50 2 -0.0543881 0.749386 0.463947 0.515672
891 50 2 -0.018412 0.798519 0.496799 0.51543
892 50 2 -0.0543881 0.790156 0.553776 0.515154
893 50 1 0.0622985 0.832348 0.629889 0.514703
894 50 1 0.0622985 0.936207 0.586305 0.514765
895 50 1 0.0629322 0.952728 0.486435 0.515246
896 50 1 0.0629322 0.911286 0.395123 0.515772
897 50 1 0.0622985 0.823899 0.33886 0.516192
898 50 1 0.0622985 0.720041 0.382445 0.51613
899 50 1 0.0629322 0.703519 0.482315 0.515649
900 50 1 0.0629322 0.744966 0.573626 0.515122
415 24 2 -0.0616365 0.197484 0.0558719 0.53051
416 24 2 -0.0616365 0.136142 0.056595 0.530354
417 24 2 -0.0543881 0.100143 0.106637 0.530506
418 24 2 -0.018412 0.125086 0.15662 0.530816
419 24 2 -0.0543881 0.0895105 0.207312 0.530971
420 24 2 -0.0616365 0.115013 0.256626 0.531279
421 24 2 -0.0616365 0.176356 0.255903 0.531435
422 24 2 -0.0543881 0.212355 0.205866 0.531283
423 24 2 -0.018412 0.187411 0.155883 0.530974
424 24 2 -0.0543881 0.222992 0.105186 0.530818
425 24 1 0.0622985 0.225561 0.0169398 0.530392
426 24 1 0.0622985 0.116237 0.0182268 0.530115
427 24 1 0.0629322 0.0523066 0.106368 0.53038
428 24 1 0.0629322 0.0414969 0.208708 0.530854
429 24 1 0.0622985 0.0869411 0.295558 0.531397
430 24 1 0.0622985 0.196266 0.294271 0.531675
431 24 1 0.0629322 0.260196 0.206129 0.531409
432 24 1 0.0629322 0.271005 0.10379 0.530936
761 43 2 -0.0543881 0.507094 0.777222 0.545709
762 43 2 -0.0616365 0.566909 0.795899 0.545607
763 43 2 -0.0616365 0.592012 0.842157 0.545958
769 43 1 0.0629322 0.390971 0.750314 0.546002
770 43 1 0.0629322 0.488267 0.741005 0.545429
771 43 1 0.0622985 0.593835 0.774289 0.545253
772 43 1 0.0622985 0.638579 0.856737 0.54588
768 43 1 0.0622985 0.33017 0.799515 0.546804
757 43 2 -0.0616365 0.401845 0.860352 0.547077
758 43 2 -0.0616365 0.376737 0.81409 0.546726
759 43 2 -0.0543881 0.411376 0.786381 0.546272
760 43 2 -0.018412 0.471619 0.804622 0.546163
764 43 2 -0.0543881 0.557373 0.869871 0.546413
765 43 2 -0.018412 0.497131 0.851626 0.546521
766 43 2 -0.0543881 0.461655 0.879025 0.546976
767 43 1 0.0622985 0.374918 0.881958 0.547431
773 43 1 0.0629322 0.577778 0.905938 0.546682
774 43 1 0.0629322 0.480482 0.915247 0.547255
176 10 1 0.0629322 0.0339164 0.139975 0.562042
165 10 2 -0.0543881 0.994289 0.0267172 0.562301
166 10 2 -0.018412 0.965461 0.0699558 0.56193
167 10 2 -0.0543881 0.990941 0.127679 0.561831
168 10 2 -0.0616365 0.961696 0.17013 0.56146
169 10 2 -0.0616365 0.906656 0.155455 0.561184
170 10 2 -0.0543881 0.880712 0.0982829 0.561278
171 10 2 -0.018412 0.909539 0.0550442 0.561649
177 10 1 0.0622985 0.981942 0.214629 0.561387
178 10 1 0.0622985 0.883845 0.188471 0.560896
179 10 1 0.0629322 0.837683 0.087646 0.561059
163 10 2 -0.0616365 0.9133 0.95487 0.562119
164 10 2 -0.0616365 0.968344 0.969545 0.562395
172 10 2 -0.0543881 0.884059 0.997321 0.561748
173 10 1 0.0622985 0.893059 0.910371 0.562191
180 10 1 0.0629322 0.841084 0.98502 0.561537
175 10 1 0.0629322 0.037318 0.037354 0.56252
174 10 1 0.0622985 0.991155 0.936529 0.562683
330 19 2 -0.0616365 0.376223 0.652049 0.591804
339 19 1 0.0622985 0.388766 0.614541 0.591507
331 19 2 -0.0616365 0.376273 0.711336 0.591582
332 19 2 -0.0543881 0.360157 0.759468 0.591963
340 19 1 0.0622985 0.388852 0.720209 0.591113
341 19 1 0.0629322 0.360466 0.805481 0.591782
337 19 1 0.0629322 0.327032 0.632017 0.593586
329 19 2 -0.0543881 0.360057 0.64073 0.592407
338 19 1 0.0629322 0.360289 0.594099 0.592572
325 19 2 -0.0616365 0.311275 0.785453 0.593565
326 19 2 -0.0616365 0.311224 0.726162 0.593786
327 19 2 -0.0543881 0.327341 0.67803 0.593405
334 19 2 -0.0543881 0.327441 0.796772 0.592961
335 19 1 0.0622985 0.298737 0.822962 0.593861
336 19 1 0.0622985 0.298646 0.717294 0.594256
342 19 1 0.0629322 0.327209 0.843404 0.592796
328 19 2 -0.018412 0.343726 0.68863 0.592797
333 19 2 -0.018412 0.343776 0.748872 0.592572
562 32 2 -0.018412 0.027181 0.289137 0.608035
565 32 2 -0.0616365 0.145282 0.317182 0.608434
566 32 2 -0.0543881 0.125468 0.256876 0.608426
567 32 2 -0.018412 0.0665724 0.242115 0.608228
568 32 2 -0.0543881 0.0459217 0.181686 0.608218
576 32 1 0.0629322 0.0755539 0.144905 0.608364
559 32 2 -0.0616365 0.987235 0.167784 0.608019
560 32 2 -0.0616365 0.948467 0.214069 0.607829
561 32 2 -0.0543881 0.96828 0.274371 0.607837
569 32 1 0.0622985 0.971864 0.120821 0.608014
570 32 1 0.0622985 0.902768 0.203301 0.607675
571 32 1 0.0629322 0.937339 0.30991 0.607687
563 32 2 -0.0543881 0.0478272 0.349565 0.608045
564 32 2 -0.0616365 0.106514 0.363463 0.608244
572 32 1 0.0629322 0.018195 0.386346 0.607899
573 32 1 0.0622985 0.121889 0.410431 0.608249
574 32 1 0.0622985 0.190981 0.327946 0.608588
575 32 1 0.0629322 0.156415 0.221341 0.608576
56 4 2 -0.0616365 0.326277 0.324249 0.62449
66 4 1 0.0622985 0.307423 0.292366 0.624817
57 4 2 -0.0543881 0.350388 0.302961 0.623943
59 4 2 -0.0543881 0.399375 0.32283 0.622962
67 4 1 0.0629322 0.349893 0.254338 0.623852
68 4 1 0.0629322 0.399689 0.274539 0.622855
55 4 2 -0.0616365 0.326395 0.386274 0.624616
58 4 2 -0.018412 0.374941 0.34349 0.623515
60 4 2 -0.0616365 0.423605 0.363727 0.622541
61 4 2 -0.0616365 0.423723 0.425751 0.622668
62 4 2 -0.0543881 0.399612 0.447039 0.623215
63 4 2 -0.018412 0.375059 0.40651 0.623643
64 4 2 -0.0543881 0.350625 0.42717 0.624196
69 4 1 0.0622985 0.442364 0.347101 0.622115
70 4 1 0.0622985 0.442573 0.457635 0.62234
71 4 1 0.0629322 0.400107 0.495662 0.623305
72 4 1 0.0629322 0.350311 0.475461 0.624302
65 4 1 0.0622985 0.307636 0.4029 0.625042
505 29 2 -0.0616365 0.71135 0.857824 0.653973
506 29 2 -0.0616365 0.757117 0.845932 0.653552
507 29 2 -0.0543881 0.803412 0.80489 0.653694
508 29 2 -0.018412 0.804499 0.775208 0.65426
509 29 2 -0.0543881 0.850739 0.733797 0.65441
514 29 2 -0.0543881 0.711764 0.828706 0.654537
515 29 1 0.0622985 0.675283 0.889766 0.653863
516 29 1 0.0622985 0.756844 0.868575 0.653113
517 29 1 0.0629322 0.838774 0.796186 0.65336
518 29 1 0.0629322 0.886883 0.72392 0.654087
510 29 2 -0.0616365 0.851148 0.704679 0.654974
511 29 2 -0.0616365 0.805386 0.716566 0.655395
512 29 2 -0.0543881 0.759091 0.757608 0.655253
513 29 2 -0.018412 0.757999 0.787291 0.654687
519 29 1 0.0622985 0.887215 0.672732 0.655084
520 29 1 0.0622985 0.805654 0.693924 0.655834
521 29 1 0.0629322 0.723729 0.766313 0.655587
522 29 1 0.0629322 0.67562 0.838583 0.65486
811 46 2 -0.0616365 0.639694 0.290215 0.67061
813 46 2 -0.0543881 0.658884 0.182191 0.670571
814 46 2 -0.018412 0.623263 0.176865 0.670044
815 46 2 -0.0543881 0.614609 0.120539 0.669756
816 46 2 -0.0616365 0.579056 0.116037 0.669232
817 46 2 -0.0616365 0.551725 0.167725 0.668989
818 46 2 -0.0543881 0.559865 0.224061 0.66927
819 46 2 -0.018412 0.595486 0.229386 0.669798
820 46 2 -0.0543881 0.60414 0.285708 0.670086
824 46 1 0.0629322 0.635596 0.0796468 0.669938
825 46 1 0.0622985 0.572753 0.0721523 0.669013
826 46 1 0.0622985 0.524034 0.164273 0.668581
827 46 1 0.0629322 0.538145 0.263934 0.669074
828 46 1 0.0629322 0.583153 0.326604 0.669904
812 46 2 -0.0616365 0.667029 0.238522 0.670853
823 46 1 0.0629322 0.680604 0.142313 0.670767
821 46 1 0.0622985 0.646001 0.334099 0.670829
822 46 1 0.0622985 0.694715 0.241974 0.67126
253 15 2 -0.0616365 0.0693737 0.0322292 0.686019
254 15 2 -0.0616365 0.0270583 0.0452308 0.685567
255 15 2 -0.0543881 0.0129379 0.00146919 0.685129
263 15 1 0.0622985 0.0804017 0.0662635 0.68636
264 15 1 0.0622985 0.00498872 0.0894335 0.685554
265 15 1 0.0629322 0.979763 0.0124653 0.684779
256 15 2 -0.018412 0.0410012 0.944106 0.685138
257 15 2 -0.0543881 0.0273175 0.899566 0.684702
258 15 2 -0.0616365 0.0556263 0.842771 0.684718
259 15 2 -0.0616365 0.0979418 0.82977 0.68517
260 15 2 -0.0543881 0.112062 0.873531 0.685608
261 15 2 -0.018412 0.0839988 0.930895 0.685598
262 15 2 -0.0543881 0.0976826 0.975434 0.686035
267 15 1 0.0622985 0.0445984 0.808737 0.684377
268 15 1 0.0622985 0.120011 0.785567 0.685183
269 15 1 0.0629322 0.145237 0.862535 0.685958
270 15 1 0.0629322 0.130621 0.966116 0.686392
266 15 1 0.0629322 0.994379 0.908884 0.684345
384 22 2 -0.0616365 0.627347 0.331739 0.715573
393 22 1 0.0622985 0.582007 0.32961 0.715378
385 22 2 -0.0616365 0.677957 0.319051 0.715215
386 22 2 -0.0543881 0.736162 0.321807 0.715467
394 22 1 0.0622985 0.672209 0.306991 0.714739
395 22 1 0.0629322 0.775153 0.311738 0.71518
396 22 1 0.0629322 0.84279 0.33052 0.716069
383 22 2 -0.0543881 0.6348 0.347219 0.716185
392 22 1 0.0629322 0.594713 0.356978 0.716457
379 22 2 -0.0616365 0.810156 0.355759 0.716953
381 22 2 -0.0543881 0.701336 0.365696 0.717059
382 22 2 -0.018412 0.693037 0.350197 0.716445
387 22 2 -0.018412 0.744461 0.337305 0.716081
388 22 2 -0.0543881 0.802698 0.340284 0.716342
391 22 1 0.0629322 0.662345 0.375764 0.717346