ITEM: TIMESTEP
0
ITEM: NUMBER OF ATOMS
900
ITEM: BOX BOUNDS pp pp pp
0.0000000000000000e+00 2.1989592999999999e+01
0.0000000000000000e+00 2.1989592999999999e+01
0.0000000000000000e+00 2.1989592920000000e+03
ITEM: ATOMS id mol type q xs ys zs
446 25 1 0.0629322 0.585008 0.582804 0.0358957
434 25 2 -0.0616365 0.63988 0.752499 0.0360623
435 25 2 -0.0543881 0.619152 0.695733 0.035976
444 25 1 0.0622985 0.625448 0.788924 0.0357607
445 25 1 0.0629322 0.587944 0.686852 0.0356026
436 25 2 -0.018412 0.63676 0.650266 0.0363474
437 25 2 -0.0543881 0.616256 0.593098 0.0362653
438 25 2 -0.0616365 0.634116 0.54818 0.0366381
447 25 1 0.0622985 0.617359 0.50218 0.0365687
439 25 2 -0.0616365 0.672621 0.560002 0.0370961
440 25 2 -0.0543881 0.693349 0.616768 0.0371824
441 25 2 -0.018412 0.675741 0.662235 0.0368111
448 25 1 0.0622985 0.687052 0.523577 0.0373978
449 25 1 0.0629322 0.724557 0.62565 0.0375559
433 25 2 -0.0616365 0.678385 0.764321 0.0365204
442 25 2 -0.0543881 0.696244 0.719403 0.0368932
443 25 1 0.0622985 0.695141 0.810322 0.0365898
450 25 1 0.0629322 0.727492 0.729697 0.0372627
739 42 2 -0.0616365 0.03544 0.245458 0.051501
748 42 2 -0.0543881 0.0477912 0.30473 0.0515789
749 42 1 0.0622985 0.0662778 0.217023 0.0512392
756 42 1 0.0629322 0.0888118 0.323684 0.0513774
740 42 2 -0.0616365 0.985082 0.22128 0.051746
741 42 2 -0.0543881 0.946965 0.256322 0.0520694
742 42 2 -0.018412 0.958884 0.315886 0.0521506
750 42 1 0.0622985 0.975129 0.173261 0.0516826
751 42 1 0.0629322 0.906302 0.236058 0.0522653
746 42 2 -0.0543881 0.0217849 0.399928 0.0519838
747 42 2 -0.018412 0.00986592 0.340364 0.0519026
755 42 1 0.0629322 0.0624476 0.420192 0.0517879
743 42 2 -0.0543881 0.920959 0.351519 0.0524743
744 42 2 -0.0616365 0.93331 0.410792 0.0525522
745 42 2 -0.0616365 0.983668 0.43497 0.0523072
754 42 1 0.0622985 0.993621 0.482989 0.0523706
752 42 1 0.0629322 0.879938 0.332566 0.0526758
753 42 1 0.0622985 0.902472 0.439227 0.052814
196 11 1 0.0622985 0.295204 0.49197 0.0675277
197 11 1 0.0629322 0.320324 0.598873 0.0675678
181 11 2 -0.0616365 0.488319 0.660569 0.067493
182 11 2 -0.0616365 0.532493 0.618806 0.0674429
183 11 2 -0.0543881 0.518345 0.559465 0.0674208
184 11 2 -0.018412 0.459861 0.54136 0.0674486
185 11 2 -0.0543881 0.4451 0.481918 0.0674268
186 11 2 -0.0616365 0.386681 0.464431 0.0674549
187 11 2 -0.0616365 0.342507 0.506195 0.067505
188 11 2 -0.0543881 0.356655 0.565536 0.0675271
189 11 2 -0.018412 0.415139 0.58364 0.0674993
190 11 2 -0.0543881 0.4299 0.643082 0.0675211
192 11 1 0.0622985 0.579795 0.633031 0.0674202
193 11 1 0.0629322 0.554676 0.526128 0.0673801
194 11 1 0.0629322 0.480422 0.447514 0.0673862
195 11 1 0.0622985 0.37516 0.416378 0.067437
191 11 1 0.0622985 0.49984 0.708622 0.0675109
198 11 1 0.0629322 0.394578 0.677487 0.0675617
307 18 2 -0.0616365 0.869641 0.155392 0.0975015
308 18 2 -0.0616365 0.91994 0.158245 0.0978454
309 18 2 -0.0543881 0.919743 0.190497 0.0983637
310 18 2 -0.018412 0.869211 0.220195 0.0985427
314 18 2 -0.0543881 0.767757 0.247004 0.0983736
315 18 2 -0.018412 0.818289 0.217306 0.0981946
316 18 2 -0.0543881 0.819035 0.184784 0.0976752
317 18 1 0.0622985 0.869861 0.129252 0.0970818
318 18 1 0.0622985 0.960902 0.134416 0.0977042
319 18 1 0.0629322 0.960889 0.192383 0.0986378
323 18 1 0.0629322 0.72661 0.245119 0.0980995
324 18 1 0.0629322 0.778595 0.182042 0.0973915
311 18 2 -0.0543881 0.868464 0.252717 0.0990621
312 18 2 -0.0616365 0.817859 0.282109 0.0992358
313 18 2 -0.0616365 0.767559 0.279256 0.0988919
320 18 1 0.0629322 0.908905 0.255459 0.0993458
321 18 1 0.0622985 0.817639 0.308249 0.0996555
322 18 1 0.0622985 0.726598 0.303085 0.0990331
588 33 1 0.0622985 0.465958 0.628924 0.113775
577 33 2 -0.0616365 0.490353 0.69764 0.113154
578 33 2 -0.0616365 0.489362 0.671942 0.113707
579 33 2 -0.0543881 0.517241 0.699293 0.114176
580 33 2 -0.018412 0.546373 0.752617 0.114096
581 33 2 -0.0543881 0.574524 0.780504 0.114564
582 33 2 -0.0616365 0.603397 0.83361 0.114478
583 33 2 -0.0616365 0.604388 0.859309 0.113925
584 33 2 -0.0543881 0.576509 0.831957 0.113456
585 33 2 -0.018412 0.547377 0.778633 0.113536
586 33 2 -0.0543881 0.519226 0.750746 0.113069
587 33 1 0.0622985 0.467752 0.675438 0.112774
589 33 1 0.0629322 0.516043 0.677892 0.114622
590 33 1 0.0629322 0.574115 0.760221 0.115015
591 33 1 0.0622985 0.625998 0.855812 0.114858
592 33 1 0.0622985 0.627792 0.902327 0.113857
593 33 1 0.0629322 0.577707 0.853358 0.11301
594 33 1 0.0629322 0.519635 0.771029 0.112617
83 5 1 0.0622985 0.020227 0.910088 0.129805
84 5 1 0.0622985 0.00695672 0.800651 0.129744
73 5 2 -0.0616365 0.977419 0.891244 0.129644
74 5 2 -0.0616365 0.970087 0.830781 0.129611
75 5 2 -0.0543881 0.917267 0.807445 0.129413
76 5 2 -0.018412 0.871289 0.844393 0.129246
77 5 2 -0.0543881 0.818054 0.821497 0.129047
78 5 2 -0.0616365 0.772581 0.858755 0.128883
79 5 2 -0.0616365 0.779913 0.919218 0.128916
80 5 2 -0.0543881 0.832733 0.942554 0.129114
81 5 2 -0.018412 0.878711 0.905605 0.12928
82 5 2 -0.0543881 0.931946 0.928502 0.12948
85 5 1 0.0629322 0.912003 0.758311 0.129388
86 5 1 0.0629322 0.811425 0.772557 0.129017
87 5 1 0.0622985 0.729773 0.83991 0.128722
88 5 1 0.0622985 0.743043 0.949348 0.128783
89 5 1 0.0629322 0.837997 0.991687 0.129139
90 5 1 0.0629322 0.938575 0.977442 0.129509
487 28 2 -0.0616365 0.2341 0.237315 0.161055
488 28 2 -0.0616365 0.194311 0.278174 0.160839
489 28 2 -0.0543881 0.20774 0.310346 0.160338
490 28 2 -0.018412 0.26111 0.301933 0.160049
492 28 2 -0.0616365 0.328401 0.325186 0.159261
495 28 2 -0.018412 0.301391 0.260568 0.160268
496 28 2 -0.0543881 0.287404 0.228539 0.160771
498 28 1 0.0622985 0.15115 0.285238 0.16107
504 28 1 0.0629322 0.319209 0.195239 0.160952
493 28 2 -0.0616365 0.36819 0.284327 0.159477
494 28 2 -0.0543881 0.354761 0.252155 0.159978
502 28 1 0.0622985 0.411351 0.277262 0.159247
503 28 1 0.0629322 0.387494 0.21918 0.160148
491 28 2 -0.0543881 0.275097 0.333961 0.159545
499 28 1 0.0629322 0.175007 0.34332 0.160168
500 28 1 0.0629322 0.243292 0.367261 0.159364
501 28 1 0.0622985 0.339334 0.351216 0.158855
497 28 1 0.0622985 0.223167 0.211284 0.161461
844 47 1 0.0622985 0.0993115 0.646684 0.174123
843 47 1 0.0622985 0.144847 0.747261 0.174121
836 47 2 -0.0543881 0.0887375 0.645295 0.175076
838 47 2 -0.0543881 0.0796435 0.649699 0.176138
839 47 1 0.0622985 0.0739043 0.658988 0.17709
845 47 1 0.0629322 0.0683968 0.600198 0.17507
846 47 1 0.0629322 0.0591776 0.604663 0.176146
829 47 2 -0.0616365 0.0877448 0.679725 0.176663
830 47 2 -0.0616365 0.112902 0.735292 0.176662
831 47 2 -0.0543881 0.130013 0.760955 0.176135
832 47 2 -0.018412 0.12211 0.731253 0.175605
833 47 2 -0.0543881 0.139107 0.756551 0.175073
834 47 2 -0.0616365 0.131006 0.726525 0.174548
835 47 2 -0.0616365 0.105849 0.670957 0.174549
837 47 2 -0.018412 0.0966409 0.674997 0.175606
840 47 1 0.0622985 0.119439 0.759566 0.177088
841 47 1 0.0629322 0.150354 0.806052 0.176141
842 47 1 0.0629322 0.159573 0.801587 0.175064
239 14 2 -0.0543881 0.503764 0.406779 0.190586
240 14 2 -0.0616365 0.491434 0.454368 0.190224
241 14 2 -0.0616365 0.522153 0.506632 0.190291
242 14 2 -0.0543881 0.56527 0.511421 0.190721
248 14 1 0.0629322 0.478464 0.364689 0.190526
249 14 1 0.0622985 0.456519 0.450548 0.189876
250 14 1 0.0622985 0.512122 0.545146 0.189998
251 14 1 0.0629322 0.589799 0.554105 0.19077
246 14 1 0.0622985 0.612877 0.329855 0.192108
247 14 1 0.0629322 0.5352 0.320895 0.191336
235 14 2 -0.0616365 0.633566 0.420632 0.191882
236 14 2 -0.0616365 0.602846 0.368368 0.191814
237 14 2 -0.0543881 0.559729 0.363579 0.191385
238 14 2 -0.018412 0.54695 0.411045 0.191019
243 14 2 -0.018412 0.57805 0.463956 0.191087
244 14 2 -0.0543881 0.621235 0.468221 0.19152
252 14 1 0.0629322 0.646535 0.510311 0.19158
245 14 1 0.0622985 0.66848 0.424452 0.19223
411 23 1 0.0622985 0.236738 0.838528 0.22037
397 23 2 -0.0616365 0.201897 0.840344 0.223039
398 23 2 -0.0616365 0.17404 0.791141 0.22281
399 23 2 -0.0543881 0.1754 0.780425 0.222209
400 23 2 -0.018412 0.204649 0.818844 0.221832
401 23 2 -0.0543881 0.206325 0.808563 0.221228
402 23 2 -0.0616365 0.235603 0.847156 0.220856
403 23 2 -0.0616365 0.26346 0.896359 0.221085
404 23 2 -0.0543881 0.2621 0.907075 0.221686
405 23 2 -0.018412 0.232851 0.868656 0.222063
406 23 2 -0.0543881 0.231175 0.878937 0.222667
407 23 1 0.0622985 0.200762 0.848972 0.223526
408 23 1 0.0622985 0.15034 0.759916 0.223111
409 23 1 0.0629322 0.152594 0.740327 0.22203
410 23 1 0.0629322 0.183945 0.768852 0.221035
412 23 1 0.0622985 0.28716 0.927584 0.220784
413 23 1 0.0629322 0.284906 0.947173 0.221865
414 23 1 0.0629322 0.253555 0.918648 0.22286
631 36 2 -0.0616365 0.432609 0.0798141 0.236479
632 36 2 -0.0616365 0.390181 0.0519567 0.236817
640 36 2 -0.0543881 0.459084 0.130969 0.236681
641 36 1 0.0622985 0.445563 0.0609447 0.236041
642 36 1 0.0622985 0.368771 0.0105232 0.236653
648 36 1 0.0629322 0.493421 0.153045 0.236402
633 36 2 -0.0543881 0.374138 0.0751937 0.237358
634 36 2 -0.018412 0.400399 0.126524 0.237566
635 36 2 -0.0543881 0.384667 0.150281 0.238109
636 36 2 -0.0616365 0.411142 0.201436 0.238311
637 36 2 -0.0616365 0.453569 0.229293 0.237973
638 36 2 -0.0543881 0.469613 0.206056 0.237431
639 36 2 -0.018412 0.443352 0.154726 0.237224
643 36 1 0.0629322 0.339656 0.052084 0.237628
644 36 1 0.0629322 0.35033 0.128205 0.238388
645 36 1 0.0622985 0.398187 0.220305 0.238749
646 36 1 0.0622985 0.47498 0.270727 0.238137
647 36 1 0.0629322 0.504095 0.229166 0.237162
53 3 1 0.0629322 0.28977 0.655937 0.252156
54 3 1 0.0629322 0.203468 0.636274 0.252777
40 3 2 -0.018412 0.250945 0.779021 0.252947
41 3 2 -0.0543881 0.294433 0.817093 0.252743
44 3 2 -0.0543881 0.290697 0.702302 0.252328
45 3 2 -0.018412 0.249056 0.720978 0.252737
46 3 2 -0.0543881 0.205567 0.682906 0.252941
50 3 1 0.0629322 0.296532 0.863725 0.252907
42 3 2 -0.0616365 0.335669 0.797973 0.252336
43 3 2 -0.0616365 0.333803 0.740639 0.252129
51 3 1 0.0622985 0.370609 0.828981 0.252174
52 3 1 0.0622985 0.367231 0.725208 0.251799
37 3 2 -0.0616365 0.164331 0.702027 0.253349
38 3 2 -0.0616365 0.166197 0.75936 0.253556
39 3 2 -0.0543881 0.209303 0.797697 0.253356
47 3 1 0.0622985 0.129391 0.671018 0.253511
48 3 1 0.0622985 0.132769 0.774791 0.253886
49 3 1 0.0629322 0.21023 0.844062 0.253529
849 48 2 -0.0543881 0.0359113 0.297761 0.268011
850 48 2 -0.018412 0.0790813 0.265219 0.2683
851 48 2 -0.0543881 0.124122 0.292987 0.268609
852 48 2 -0.0616365 0.166871 0.260089 0.268895
853 48 2 -0.0616365 0.164982 0.199157 0.268874
854 48 2 -0.0543881 0.120338 0.170989 0.268568
855 48 2 -0.018412 0.0771683 0.203532 0.268279
856 48 2 -0.0543881 0.032128 0.175764 0.26797
861 48 1 0.0622985 0.203058 0.28285 0.269144
862 48 1 0.0622985 0.199638 0.172562 0.269106
863 48 1 0.0629322 0.119413 0.121538 0.268555
864 48 1 0.0629322 0.0299883 0.126379 0.267949
847 48 2 -0.0616365 0.989378 0.208661 0.267684
848 48 2 -0.0616365 0.991268 0.269594 0.267705
857 48 1 0.0622985 0.953192 0.185901 0.267436
858 48 1 0.0622985 0.956612 0.296189 0.267473
859 48 1 0.0629322 0.0368366 0.347212 0.268024
860 48 1 0.0629322 0.126261 0.342372 0.26863
464 26 1 0.0629322 0.929995 0.425371 0.282545
465 26 1 0.0622985 0.839552 0.487784 0.282547
462 26 1 0.0622985 0.0314382 0.311951 0.283999
461 26 1 0.0622985 0.972948 0.324716 0.284927
463 26 1 0.0629322 0.999622 0.361569 0.283072
451 26 2 -0.0616365 0.958456 0.347132 0.28451
452 26 2 -0.0616365 0.990771 0.340079 0.283998
453 26 2 -0.0543881 0.972941 0.367722 0.283484
454 26 2 -0.018412 0.922608 0.40268 0.283478
455 26 2 -0.0543881 0.904259 0.430658 0.282964
456 26 2 -0.0616365 0.854044 0.465369 0.282963
457 26 2 -0.0616365 0.821728 0.472421 0.283476
458 26 2 -0.0543881 0.839559 0.444779 0.28399
459 26 2 -0.018412 0.889892 0.40982 0.283996
460 26 2 -0.0543881 0.90824 0.381842 0.28451
466 26 1 0.0622985 0.781062 0.50055 0.283475
467 26 1 0.0629322 0.812877 0.450932 0.284402
468 26 1 0.0629322 0.882505 0.387129 0.284929
727 41 2 -0.0616365 0.638552 0.613268 0.298762
728 41 2 -0.0543881 0.661438 0.558191 0.298892
736 41 1 0.0622985 0.593172 0.617256 0.298569
737 41 1 0.0629322 0.634067 0.517957 0.298802
724 41 2 -0.018412 0.751116 0.603496 0.299239
725 41 2 -0.0543881 0.727657 0.658543 0.299106
729 41 2 -0.018412 0.717633 0.552754 0.29913
730 41 2 -0.0543881 0.741093 0.497707 0.299263
738 41 1 0.0629322 0.714818 0.456641 0.299178
726 41 2 -0.0616365 0.671626 0.66339 0.298869
735 41 1 0.0622985 0.653035 0.707976 0.298763
734 41 1 0.0629322 0.753932 0.699609 0.29919
721 41 2 -0.0616365 0.797124 0.49286 0.2995
722 41 2 -0.0616365 0.830198 0.542982 0.299607
723 41 2 -0.0543881 0.807312 0.598059 0.299477
731 41 1 0.0622985 0.815715 0.448274 0.299606
732 41 1 0.0622985 0.875578 0.538994 0.299799
733 41 1 0.0629322 0.834683 0.638293 0.299566
127 8 2 -0.0616365 0.107743 0.310532 0.313868
128 8 2 -0.0616365 0.156857 0.285674 0.313605
129 8 2 -0.0543881 0.208939 0.280383 0.313919
130 8 2 -0.018412 0.212361 0.299917 0.314499
131 8 2 -0.0543881 0.264396 0.294847 0.314818
132 8 2 -0.0616365 0.267257 0.314468 0.315396
135 8 2 -0.018412 0.162639 0.325083 0.314765
136 8 2 -0.0543881 0.110604 0.330154 0.314445
137 8 1 0.0622985 0.0655832 0.314792 0.313613
138 8 1 0.0622985 0.15448 0.269799 0.313137
139 8 1 0.0629322 0.24839 0.260123 0.313699
140 8 1 0.0629322 0.30461 0.274786 0.314612
141 8 1 0.0622985 0.309417 0.310208 0.315651
133 8 2 -0.0616365 0.218143 0.339326 0.315659
134 8 2 -0.0543881 0.166061 0.344617 0.315345
143 8 1 0.0629322 0.12661 0.364877 0.315564
144 8 1 0.0629322 0.0703897 0.350215 0.314652
142 8 1 0.0622985 0.22052 0.355202 0.316126
294 17 2 -0.0616365 0.501592 0.0214318 0.345221
295 17 2 -0.0616365 0.542708 0.0649095 0.345339
303 17 1 0.0622985 0.456056 0.0338462 0.345073
304 17 1 0.0622985 0.530474 0.112541 0.345287
293 17 2 -0.0543881 0.516623 0.962609 0.345284
302 17 1 0.0629322 0.482783 0.927862 0.345186
296 17 2 -0.0543881 0.598944 0.0496584 0.345521
305 17 1 0.0629322 0.631794 0.0854343 0.345615
306 17 1 0.0629322 0.704717 0.00963799 0.345866
290 17 2 -0.0616365 0.644792 0.87259 0.345714
291 17 2 -0.0543881 0.588557 0.887841 0.345532
292 17 2 -0.018412 0.572938 0.946742 0.345467
297 17 2 -0.018412 0.614562 0.990758 0.345586
300 17 1 0.0622985 0.657026 0.824959 0.345766
301 17 1 0.0629322 0.555706 0.852066 0.345438
289 17 2 -0.0616365 0.685908 0.916068 0.345832
298 17 2 -0.0543881 0.670877 0.974891 0.345769
299 17 1 0.0622985 0.731444 0.903654 0.34598
605 34 1 0.0622985 0.653996 0.0311919 0.360296
595 34 2 -0.0616365 0.698166 0.0185329 0.360479
600 34 2 -0.0616365 0.895583 0.0127172 0.361469
601 34 2 -0.0616365 0.874187 0.0692181 0.361553
602 34 2 -0.0543881 0.819666 0.0849176 0.361328
603 34 2 -0.018412 0.786044 0.0442253 0.361016
604 34 2 -0.0543881 0.731245 0.0594571 0.360788
609 34 1 0.0622985 0.939754 5.82042e-05 0.361652
610 34 1 0.0622985 0.901027 0.102324 0.361804
611 34 1 0.0629322 0.802922 0.130916 0.3614
612 34 1 0.0629322 0.713284 0.105105 0.360852
596 34 2 -0.0616365 0.719562 0.962032 0.360395
597 34 2 -0.0543881 0.774084 0.946333 0.36062
598 34 2 -0.018412 0.807705 0.987025 0.360931
599 34 2 -0.0543881 0.862504 0.971793 0.36116
606 34 1 0.0622985 0.692722 0.928926 0.360144
607 34 1 0.0629322 0.790828 0.900334 0.360548
608 34 1 0.0629322 0.880465 0.926145 0.361095
92 6 2 -0.0616365 0.617682 0.186182 0.377338
93 6 2 -0.0543881 0.579386 0.173997 0.376879
94 6 2 -0.018412 0.596693 0.137328 0.376419
95 6 2 -0.0543881 0.558647 0.124765 0.375955
96 6 2 -0.0616365 0.576395 0.0881725 0.3755
97 6 2 -0.0616365 0.632318 0.063818 0.375504
99 6 2 -0.018412 0.653308 0.112672 0.376423
102 6 1 0.0622985 0.603361 0.215815 0.377707
103 6 1 0.0629322 0.534174 0.194088 0.376881
104 6 1 0.0629322 0.51315 0.144178 0.375945
105 6 1 0.0622985 0.545419 0.0782666 0.375128
106 6 1 0.0622985 0.646639 0.034185 0.375135
91 6 2 -0.0616365 0.673605 0.161828 0.377342
98 6 2 -0.0543881 0.670614 0.0760026 0.375964
100 6 2 -0.0543881 0.691354 0.125235 0.376887
101 6 1 0.0622985 0.704581 0.171734 0.377715
107 6 1 0.0629322 0.715826 0.0559117 0.375961
108 6 1 0.0629322 0.736851 0.105822 0.376897
541 31 2 -0.0616365 0.106333 0.496548 0.406584
542 31 2 -0.0616365 0.0713187 0.448172 0.406708
543 31 2 -0.0543881 0.0251194 0.453239 0.407104
544 31 2 -0.018412 0.0135261 0.506762 0.407379
548 31 2 -0.0543881 0.0373809 0.609259 0.407528
549 31 2 -0.018412 0.0489742 0.555737 0.407253
550 31 2 -0.0543881 0.0952246 0.550096 0.406855
551 31 1 0.0622985 0.143741 0.492383 0.406263
552 31 1 0.0622985 0.0803651 0.404823 0.406488
557 31 1 0.0629322 0.0653802 0.6489 0.407432
558 31 1 0.0629322 0.12402 0.588922 0.406749
545 31 2 -0.0543881 0.967276 0.512403 0.407777
553 31 1 0.0629322 0.99712 0.413598 0.4072
554 31 1 0.0629322 0.93848 0.473576 0.407882
546 31 2 -0.0616365 0.956167 0.565951 0.408048
547 31 2 -0.0616365 0.991182 0.614326 0.407924
555 31 1 0.0622985 0.918759 0.570116 0.408369
556 31 1 0.0622985 0.982135 0.657676 0.408144
788 44 1 0.0629322 0.343796 0.331305 0.422687
780 44 2 -0.0616365 0.322473 0.388145 0.42195
781 44 2 -0.0616365 0.32041 0.445115 0.421733
789 44 1 0.0622985 0.308005 0.350349 0.421665
790 44 1 0.0622985 0.304271 0.453465 0.421273
775 44 2 -0.0616365 0.396278 0.518106 0.423577
776 44 2 -0.0616365 0.398341 0.461136 0.423794
777 44 2 -0.0543881 0.380496 0.414427 0.423444
778 44 2 -0.018412 0.36042 0.424288 0.422873
779 44 2 -0.0543881 0.342385 0.377761 0.422517
782 44 2 -0.0543881 0.338255 0.491825 0.422083
783 44 2 -0.018412 0.358331 0.481963 0.422653
784 44 2 -0.0543881 0.376365 0.52849 0.423009
785 44 1 0.0622985 0.410746 0.555902 0.423861
786 44 1 0.0622985 0.41448 0.452787 0.424254
787 44 1 0.0629322 0.382431 0.368475 0.423626
791 44 1 0.0629322 0.336319 0.537776 0.4219
792 44 1 0.0629322 0.374955 0.574946 0.42284
229 13 1 0.0629322 0.746524 0.663777 0.437199
230 13 1 0.0629322 0.83551 0.723548 0.437057
231 13 1 0.0622985 0.924388 0.772938 0.437473
217 13 2 -0.0616365 0.731058 0.627114 0.438649
218 13 2 -0.0616365 0.719202 0.630515 0.438052
219 13 2 -0.0543881 0.756744 0.661425 0.437683
226 13 2 -0.0543881 0.78048 0.654617 0.438879
227 13 1 0.0622985 0.700612 0.602062 0.438948
228 13 1 0.0622985 0.679154 0.608217 0.437866
234 13 1 0.0629322 0.789491 0.651453 0.439364
220 13 2 -0.018412 0.806499 0.689222 0.437908
221 13 2 -0.0543881 0.84452 0.720384 0.437542
222 13 2 -0.0616365 0.893943 0.747886 0.437772
223 13 2 -0.0616365 0.905798 0.744486 0.438369
224 13 2 -0.0543881 0.868257 0.713575 0.438738
225 13 2 -0.018412 0.818501 0.685779 0.438513
232 13 1 0.0622985 0.945846 0.766783 0.438555
233 13 1 0.0629322 0.878476 0.711223 0.439222
343 20 2 -0.0616365 0.511886 0.190685 0.468798
344 20 2 -0.0616365 0.4888 0.199469 0.469355
345 20 2 -0.0543881 0.461509 0.153443 0.469649
346 20 2 -0.018412 0.457064 0.0981965 0.469388
347 20 2 -0.0543881 0.429769 0.0516445 0.469678
350 20 2 -0.0543881 0.475991 0.0340575 0.468561
351 20 2 -0.018412 0.480436 0.0893038 0.468823
352 20 2 -0.0543881 0.507731 0.135856 0.468532
353 20 1 0.0622985 0.533981 0.228005 0.46856
354 20 1 0.0622985 0.492196 0.243904 0.46957
355 20 1 0.0629322 0.443005 0.161267 0.470101
356 20 1 0.0629322 0.410828 0.0580677 0.470131
359 20 1 0.0629322 0.494495 0.0262329 0.468109
360 20 1 0.0629322 0.526672 0.129433 0.46808
348 20 2 -0.0616365 0.425614 0.996815 0.469413
349 20 2 -0.0616365 0.4487 0.988031 0.468855
357 20 1 0.0622985 0.403519 0.959496 0.46965
358 20 1 0.0622985 0.445304 0.943597 0.468641
695 39 1 0.0622985 0.151736 0.0179122 0.485482
696 39 1 0.0622985 0.0683052 0.00926753 0.484764
685 39 2 -0.0616365 0.150848 0.980631 0.485158
686 39 2 -0.0616365 0.104754 0.975855 0.484761
687 39 2 -0.0543881 0.103591 0.929857 0.48436
688 39 2 -0.018412 0.148543 0.888207 0.484352
689 39 2 -0.0543881 0.14787 0.841831 0.483951
690 39 2 -0.0616365 0.192902 0.800619 0.483948
691 39 2 -0.0616365 0.238997 0.805395 0.484344
692 39 2 -0.0543881 0.24016 0.851393 0.484745
693 39 2 -0.018412 0.195208 0.893043 0.484753
694 39 2 -0.0543881 0.19588 0.939419 0.485154
697 39 1 0.0629322 0.0659022 0.926589 0.484041
698 39 1 0.0629322 0.110791 0.837352 0.483627
699 39 1 0.0622985 0.192014 0.763338 0.483623
700 39 1 0.0622985 0.275445 0.771983 0.484341
701 39 1 0.0629322 0.277848 0.854661 0.485064
702 39 1 0.0629322 0.232959 0.943899 0.485478
1 1 2 -0.0616365 0.60489 0.465749 0.499947
2 1 2 -0.0616365 0.607116 0.526695 0.499958
3 1 2 -0.0543881 0.555476 0.559114 0.499988
9 1 2 -0.018412 0.498873 0.46915 0.499994
10 1 2 -0.0543881 0.55102 0.437091 0.499964
11 1 1 0.0622985 0.646753 0.439542 0.499923
12 1 1 0.0622985 0.650781 0.549853 0.499944
13 1 1 0.0629322 0.558014 0.608516 0.499997
18 1 1 0.0629322 0.549949 0.387637 0.499954
4 1 2 -0.018412 0.501126 0.53085 0.500006
5 1 2 -0.0543881 0.448979 0.56291 0.500036
6 1 2 -0.0616365 0.395109 0.534251 0.500053
7 1 2 -0.0616365 0.392884 0.473306 0.500042
8 1 2 -0.0543881 0.444524 0.440887 0.500012
14 1 1 0.0629322 0.450051 0.612364 0.500046
15 1 1 0.0622985 0.353246 0.560458 0.500077
16 1 1 0.0622985 0.349219 0.450147 0.500056
17 1 1 0.0629322 0.441986 0.391485 0.500003
883 50 2 -0.0616365 0.838893 0.581753 0.514937
884 50 2 -0.0616365 0.895054 0.558185 0.51497
885 50 2 -0.0543881 0.903862 0.503777 0.515233
886 50 2 -0.018412 0.856553 0.472445 0.515464
887 50 2 -0.0543881 0.864832 0.417784 0.515729
888 50 2 -0.0616365 0.817356 0.386996 0.515958
889 50 2 -0.0616365 0.761195 0.410564 0.515924
890 50 2 -0.0543881 0.752387 0.464972 0.515662
891 50 2 -0.018412 0.799696 0.496305 0.51543
892 50 2 -0.0543881 0.791417 0.550965 0.515166
893 50 1 0.0622985 0.83182 0.625829 0.514724
894 50 1 0.0622985 0.933472 0.583171 0.514785
895 50 1 0.0629322 0.949679 0.485255 0.515256
896 50 1 0.0629322 0.910112 0.398078 0.515759
897 50 1 0.0622985 0.824429 0.34292 0.51617
898 50 1 0.0622985 0.722777 0.385578 0.51611
899 50 1 0.0629322 0.70657 0.483494 0.515638
900 50 1 0.0629322 0.746137 0.570671 0.515136
415 24 2 -0.0616365 0.195942 0.0599677 0.530526
416 24 2 -0.0616365 0.136825 0.0606647 0.530376
417 24 2 -0.0543881 0.102159 0.108757 0.530522
418 24 2 -0.018412 0.126326 0.156602 0.530819
419 24 2 -0.0543881 0.0919785 0.205137 0.530967
420 24 2 -0.0616365 0.116558 0.252531 0.531263
421 24 2 -0.0616365 0.175675 0.251834 0.531413
422 24 2 -0.0543881 0.210341 0.203741 0.531268
423 24 2 -0.018412 0.186175 0.155897 0.530971
424 24 2 -0.0543881 0.220522 0.107362 0.530822
425 24 1 0.0622985 0.223973 0.020984 0.530408
426 24 1 0.0622985 0.116971 0.0222457 0.530136
427 24 1 0.0629322 0.0542843 0.108659 0.530397
428 24 1 0.0629322 0.0439634 0.206366 0.530849
429 24 1 0.0622985 0.0885277 0.291515 0.531381
430 24 1 0.0622985 0.195529 0.290253 0.531653
431 24 1 0.0629322 0.258216 0.20384 0.531393
432 24 1 0.0629322 0.268537 0.106133 0.530941
761 43 2 -0.0543881 0.505968 0.779111 0.545733
762 43 2 -0.0616365 0.563482 0.797108 0.545636
763 43 2 -0.0616365 0.587677 0.841691 0.545975
769 43 1 0.0629322 0.394085 0.751779 0.546001
770 43 1 0.0629322 0.486975 0.742893 0.545455
771 43 1 0.0622985 0.590476 0.775532 0.545282
772 43 1 0.0622985 0.63427 0.856227 0.545896
768 43 1 0.0622985 0.33448 0.800023 0.546789
757 43 2 -0.0616365 0.405268 0.859141 0.547048
758 43 2 -0.0616365 0.381073 0.814559 0.546709
759 43 2 -0.0543881 0.414339 0.787876 0.546272
760 43 2 -0.018412 0.472128 0.805557 0.546171
764 43 2 -0.0543881 0.554411 0.868373 0.546412
765 43 2 -0.018412 0.496623 0.850692 0.546514
766 43 2 -0.0543881 0.462782 0.877139 0.546951
767 43 1 0.0622985 0.378274 0.880717 0.547402
773 43 1 0.0629322 0.574665 0.90447 0.546683
774 43 1 0.0629322 0.481775 0.913357 0.547229
176 10 1 0.0629322 0.0319987 0.137122 0.562043
175 10 1 0.0629322 0.0352448 0.0391448 0.562499
165 10 2 -0.0543881 0.992203 0.0283375 0.562281
166 10 2 -0.018412 0.964351 0.0696602 0.561924
167 10 2 -0.0543881 0.989001 0.124984 0.56183
168 10 2 -0.0616365 0.960835 0.165772 0.561474
169 10 2 -0.0616365 0.907791 0.151626 0.561208
170 10 2 -0.0543881 0.882797 0.096662 0.561298
171 10 2 -0.018412 0.91065 0.0553393 0.561655
177 10 1 0.0622985 0.981032 0.210309 0.561401
178 10 1 0.0622985 0.885022 0.184705 0.56092
179 10 1 0.0629322 0.839755 0.0858547 0.561079
172 10 2 -0.0543881 0.885999 1.52881e-05 0.561748
163 10 2 -0.0616365 0.914165 0.959228 0.562105
164 10 2 -0.0616365 0.967209 0.973374 0.562371
173 10 1 0.0622985 0.893968 0.91469 0.562178
180 10 1 0.0629322 0.843001 0.987878 0.561536
174 10 1 0.0622985 0.989978 0.940294 0.562659
330 19 2 -0.0616365 0.374899 0.654636 0.59184
339 19 1 0.0622985 0.387455 0.617155 0.591543
331 19 2 -0.0616365 0.374947 0.711776 0.591627
332 19 2 -0.0543881 0.359457 0.758098 0.591993
340 19 1 0.0622985 0.387542 0.720578 0.591157
341 19 1 0.0629322 0.359711 0.804193 0.591813
337 19 1 0.0629322 0.327788 0.633308 0.593555
329 19 2 -0.0543881 0.359361 0.643694 0.59242
338 19 1 0.0629322 0.359537 0.597106 0.592587
325 19 2 -0.0616365 0.3126 0.782865 0.593528
326 19 2 -0.0616365 0.312552 0.725725 0.593742
327 19 2 -0.0543881 0.328042 0.679404 0.593375
334 19 2 -0.0543881 0.328138 0.793808 0.592948
335 19 1 0.0622985 0.300044 0.820346 0.593825
336 19 1 0.0622985 0.299957 0.716923 0.594212
342 19 1 0.0629322 0.327962 0.840395 0.592781
328 19 2 -0.018412 0.343725 0.689827 0.592792
333 19 2 -0.018412 0.343774 0.747674 0.592576
562 32 2 -0.018412 0.027963 0.288202 0.608039
565 32 2 -0.0616365 0.141353 0.314973 0.608422
566 32 2 -0.0543881 0.122352 0.256965 0.608415
567 32 2 -0.018412 0.0657874 0.243047 0.608224
568 32 2 -0.0543881 0.0462026 0.184982 0.608215
576 32 1 0.0629322 0.0759796 0.148313 0.608362
559 32 2 -0.0616365 0.989759 0.171674 0.608024
560 32 2 -0.0616365 0.952397 0.216277 0.607841
561 32 2 -0.0543881 0.971398 0.274285 0.607848
569 32 1 0.0622985 0.974312 0.124706 0.608018
570 32 1 0.0622985 0.906688 0.205437 0.607687
571 32 1 0.0629322 0.940573 0.309963 0.607698
563 32 2 -0.0543881 0.0475478 0.346268 0.608048
564 32 2 -0.0616365 0.103991 0.359575 0.608239
572 32 1 0.0629322 0.0177708 0.382937 0.607901
573 32 1 0.0622985 0.119438 0.406544 0.608245
574 32 1 0.0622985 0.187063 0.325813 0.608576
575 32 1 0.0629322 0.153178 0.221286 0.608565
56 4 2 -0.0616365 0.328265 0.326181 0.624453
66 4 1 0.0622985 0.309389 0.294335 0.624781
57 4 2 -0.0543881 0.351439 0.305652 0.623927
59 4 2 -0.0543881 0.398334 0.324674 0.622988
67 4 1 0.0629322 0.351024 0.257045 0.623834
68 4 1 0.0629322 0.398565 0.276328 0.622882
55 4 2 -0.0616365 0.328379 0.385953 0.624574
72 4 1 0.0629322 0.351435 0.473672 0.624275
58 4 2 -0.018412 0.374942 0.344744 0.623517
60 4 2 -0.0616365 0.421621 0.364048 0.622583
61 4 2 -0.0616365 0.421734 0.42382 0.622705
62 4 2 -0.0543881 0.398561 0.444348 0.623231
63 4 2 -0.018412 0.375057 0.405256 0.62364
64 4 2 -0.0543881 0.351666 0.425326 0.62417
69 4 1 0.0622985 0.440406 0.347478 0.622157
70 4 1 0.0622985 0.440611 0.455665 0.622377
71 4 1 0.0629322 0.398976 0.492955 0.623323
65 4 1 0.0622985 0.309594 0.402522 0.625001
505 29 2 -0.0616365 0.714102 0.854725 0.653994
506 29 2 -0.0616365 0.758204 0.843265 0.653589
507 29 2 -0.0543881 0.802747 0.803808 0.653725
508 29 2 -0.018412 0.803575 0.775449 0.654268
509 29 2 -0.0543881 0.848055 0.735748 0.65441
514 29 2 -0.0543881 0.714446 0.826752 0.654537
515 29 1 0.0622985 0.678047 0.886696 0.653884
516 29 1 0.0622985 0.757873 0.865954 0.65315
517 29 1 0.0629322 0.838204 0.794982 0.653392
518 29 1 0.0629322 0.884135 0.725985 0.654086
510 29 2 -0.0616365 0.848399 0.707775 0.654953
511 29 2 -0.0616365 0.804296 0.719235 0.655358
512 29 2 -0.0543881 0.759753 0.758692 0.655222
513 29 2 -0.018412 0.758926 0.787051 0.654679
519 29 1 0.0622985 0.884454 0.675804 0.655064
520 29 1 0.0622985 0.804628 0.696546 0.655798
521 29 1 0.0629322 0.724297 0.767517 0.655556
522 29 1 0.0629322 0.678366 0.836515 0.654861
811 46 2 -0.0616365 0.638393 0.286777 0.670582
813 46 2 -0.0543881 0.656939 0.182764 0.670545
814 46 2 -0.018412 0.622709 0.177908 0.670039
815 46 2 -0.0543881 0.614553 0.123746 0.669764
816 46 2 -0.0616365 0.580357 0.119472 0.66926
817 46 2 -0.0616365 0.554014 0.169288 0.669027
818 46 2 -0.0543881 0.561811 0.223485 0.669297
819 46 2 -0.018412 0.596041 0.228341 0.669803
820 46 2 -0.0543881 0.604197 0.282503 0.670078
824 46 1 0.0629322 0.635626 0.0829383 0.669948
825 46 1 0.0622985 0.574005 0.0755986 0.669041
826 46 1 0.0622985 0.526326 0.165765 0.668619
827 46 1 0.0629322 0.540155 0.263481 0.669102
828 46 1 0.0629322 0.583124 0.323311 0.669894
812 46 2 -0.0616365 0.664736 0.236961 0.670815
821 46 1 0.0622985 0.644745 0.330651 0.670801
823 46 1 0.0629322 0.678595 0.142769 0.67074
822 46 1 0.0622985 0.692425 0.240485 0.671223
253 15 2 -0.0616365 0.0691885 0.028333 0.685993
254 15 2 -0.0616365 0.0284092 0.0408617 0.685558
263 15 1 0.0622985 0.0801767 0.0624297 0.686334
264 15 1 0.0622985 0.00636631 0.0851066 0.685545
265 15 1 0.0629322 0.981626 0.00964953 0.684786
255 15 2 -0.0543881 0.0147939 0.998817 0.685136
256 15 2 -0.018412 0.0418579 0.943842 0.685148
257 15 2 -0.0543881 0.0285589 0.901268 0.684727
258 15 2 -0.0616365 0.0558116 0.846668 0.684743
259 15 2 -0.0616365 0.0965909 0.834139 0.685179
260 15 2 -0.0543881 0.110206 0.876184 0.6856
261 15 2 -0.018412 0.0831421 0.931158 0.685589
262 15 2 -0.0543881 0.0964412 0.973732 0.686009
267 15 1 0.0622985 0.0448234 0.812571 0.684402
268 15 1 0.0622985 0.118634 0.789894 0.685191
269 15 1 0.0629322 0.143374 0.865351 0.685951
270 15 1 0.0629322 0.129419 0.964243 0.686366
266 15 1 0.0629322 0.995581 0.910758 0.684371
384 22 2 -0.0616365 0.630961 0.332259 0.715602
393 22 1 0.0622985 0.585631 0.330109 0.715406
385 22 2 -0.0616365 0.679737 0.320029 0.715257
386 22 2 -0.0543881 0.735731 0.322664 0.715499
394 22 1 0.0622985 0.673914 0.307974 0.714781
395 22 1 0.0629322 0.77485 0.312624 0.715213
396 22 1 0.0629322 0.839423 0.330556 0.716062
383 22 2 -0.0543881 0.638073 0.347149 0.71619
392 22 1 0.0629322 0.598077 0.356945 0.716464
379 22 2 -0.0616365 0.806538 0.355242 0.716924
381 22 2 -0.0543881 0.701768 0.364837 0.717027
382 22 2 -0.018412 0.69406 0.349941 0.716438
387 22 2 -0.018412 0.743439 0.33756 0.716088
388 22 2 -0.0543881 0.799426 0.340352 0.716336