ITEM: TIMESTEP
0
ITEM: NUMBER OF ATOMS
900
ITEM: BOX BOUNDS pp pp pp
0.0000000000000000e+00 2.1989592999999999e+01
0.0000000000000000e+00 2.1989592999999999e+01
1.0864848495000001e+03 1.1124744424999999e+03
ITEM: ATOMS id mol type q xs ys zs
641 36 1 0.0622985 0.820001 0.459182 0.0600314
453 26 2 -0.0543881 0.415891 0.0668888 0.107585
464 26 1 0.0629322 0.469047 0.163574 0.0846266
455 26 2 -0.0543881 0.498774 0.12886 0.100627
454 26 2 -0.018412 0.474125 0.0770845 0.112301
462 26 1 0.0622985 0.344469 0.00409563 0.107539
452 26 2 -0.0616365 0.391266 0.0134224 0.116554
463 26 1 0.0629322 0.387737 0.105039 0.0957173
465 26 1 0.0622985 0.573804 0.181614 0.0895178
456 26 2 -0.0616365 0.558036 0.138378 0.100659
457 26 2 -0.0616365 0.59492 0.093745 0.117459
466 26 1 0.0622985 0.645166 0.100494 0.121162
82 5 2 -0.0543881 0.799383 0.285322 0.116503
90 5 1 0.0629322 0.825453 0.307679 0.0849386
73 5 2 -0.0616365 0.741193 0.273537 0.108182
83 5 1 0.0622985 0.717973 0.285761 0.0757112
198 11 1 0.0629322 0.531092 0.516506 0.107903
648 36 1 0.0629322 0.727956 0.436401 0.11375
642 36 1 0.0622985 0.923418 0.444421 0.0936868
501 28 1 0.0622985 0.674855 0.578488 0.122786
632 36 2 -0.0616365 0.881126 0.436203 0.116085
631 36 2 -0.0616365 0.826786 0.443668 0.0966874
502 28 1 0.0622985 0.771941 0.602463 0.0942845
640 36 2 -0.0543881 0.775282 0.433249 0.124566
458 26 2 -0.0543881 0.571449 0.0423733 0.13135
445 25 1 0.0629322 0.347267 0.184457 0.183953
434 25 2 -0.0616365 0.436464 0.227809 0.183771
84 5 1 0.0622985 0.662203 0.239536 0.141957
467 26 1 0.0629322 0.601664 0.00716145 0.144686
444 25 1 0.0622985 0.424077 0.266976 0.162524
459 26 2 -0.018412 0.511655 0.0332313 0.12766
80 5 2 -0.0543881 0.886578 0.277111 0.164423
89 5 1 0.0629322 0.909562 0.298291 0.130578
81 5 2 -0.018412 0.826649 0.270238 0.160352
74 5 2 -0.0616365 0.70934 0.245706 0.144411
841 47 1 0.0629322 0.274111 0.356762 0.183602
412 23 1 0.0622985 0.222318 0.578843 0.152856
191 11 1 0.0622985 0.502127 0.417046 0.133476
189 11 2 -0.018412 0.545473 0.547732 0.181097
197 11 1 0.0629322 0.564285 0.617771 0.130927
181 11 2 -0.0616365 0.516217 0.446446 0.16075
190 11 2 -0.0543881 0.532109 0.504248 0.146025
188 11 2 -0.0543881 0.559902 0.60513 0.167896
639 36 2 -0.018412 0.778958 0.416032 0.170874
494 28 2 -0.0543881 0.817958 0.583679 0.157611
503 28 1 0.0629322 0.865117 0.588291 0.142661
493 28 2 -0.0616365 0.769702 0.588466 0.130899
633 36 2 -0.0543881 0.887464 0.419616 0.165267
647 36 1 0.0629322 0.680199 0.411624 0.185674
492 28 2 -0.0616365 0.713422 0.575186 0.148088
643 36 1 0.0629322 0.933903 0.416709 0.178651
317 18 1 0.0622985 0.416817 0.828451 0.179053
461 26 1 0.0622985 0.410857 0.924026 0.135679
451 26 2 -0.0616365 0.428176 0.967441 0.129946
468 26 1 0.0629322 0.514677 0.940214 0.146537
318 18 1 0.0622985 0.408544 0.713225 0.172781
460 26 2 -0.0543881 0.487207 0.977059 0.135476
593 33 1 0.0629322 0.611964 0.831558 0.166126
594 33 1 0.0629322 0.688151 0.748967 0.157933
304 17 1 0.0622985 0.87132 0.99327 0.155973
246 14 1 0.0622985 0.163004 0.197439 0.240209
446 25 1 0.0629322 0.324506 0.0902775 0.219837
840 47 1 0.0622985 0.213286 0.284948 0.231523
235 14 2 -0.0616365 0.0720531 0.164294 0.247584
49 3 1 0.0629322 0.115764 0.00284421 0.209322
245 14 1 0.0622985 0.0563145 0.17703 0.212115
450 25 1 0.0629322 0.562023 0.162305 0.227826
442 25 2 -0.0543881 0.513271 0.168639 0.221099
436 25 2 -0.018412 0.413043 0.131149 0.218642
435 25 2 -0.0543881 0.395085 0.182464 0.195404
433 25 2 -0.0616365 0.494894 0.220857 0.197814
443 25 1 0.0622985 0.529007 0.253022 0.190445
437 25 2 -0.0543881 0.374048 0.0865143 0.230169
441 25 2 -0.018412 0.473611 0.122954 0.231548
438 25 2 -0.0616365 0.393062 0.0340208 0.249888
88 5 1 0.0622985 0.962306 0.253333 0.201737
79 5 2 -0.0616365 0.914258 0.255429 0.20378
133 8 2 -0.0616365 0.761237 0.0367192 0.247674
85 5 1 0.0629322 0.706631 0.211678 0.219164
142 8 1 0.0622985 0.74076 0.0382972 0.211272
141 8 1 0.0622985 0.823125 0.109876 0.228218
76 5 2 -0.018412 0.793766 0.24271 0.196442
77 5 2 -0.0543881 0.822823 0.227005 0.23944
78 5 2 -0.0616365 0.88482 0.230484 0.242495
303 17 1 0.0622985 0.954359 0.0503393 0.205011
294 17 2 -0.0616365 0.930199 0.0109338 0.216358
75 5 2 -0.0543881 0.735157 0.234894 0.189534
831 47 2 -0.0543881 0.272008 0.360351 0.225293
403 23 2 -0.0616365 0.220777 0.571442 0.193257
411 23 1 0.0622985 0.159278 0.4929 0.191285
402 23 2 -0.0616365 0.188383 0.524951 0.214788
413 23 1 0.0629322 0.287342 0.640208 0.205155
738 41 1 0.0629322 0.0338215 0.624992 0.235487
404 23 2 -0.0543881 0.257307 0.606698 0.222246
833 47 2 -0.0543881 0.339346 0.443191 0.229679
183 11 2 -0.0543881 0.525838 0.471881 0.242388
184 11 2 -0.018412 0.541522 0.531117 0.229727
187 11 2 -0.0616365 0.577856 0.646087 0.201537
842 47 1 0.0629322 0.343852 0.439311 0.19242
182 11 2 -0.0616365 0.516618 0.428592 0.208735
192 11 1 0.0622985 0.503537 0.384085 0.218503
843 47 1 0.0622985 0.405349 0.514432 0.241506
500 28 1 0.0629322 0.663059 0.552117 0.211338
319 18 1 0.0629322 0.432061 0.654009 0.239266
186 11 2 -0.0616365 0.572135 0.630157 0.249873
635 36 2 -0.0543881 0.839245 0.39578 0.242988
491 28 2 -0.0543881 0.707599 0.560932 0.194787
638 36 2 -0.0543881 0.726269 0.405552 0.19866
496 28 2 -0.0543881 0.86455 0.554501 0.229423
634 36 2 -0.018412 0.836777 0.410008 0.194809
495 28 2 -0.018412 0.812147 0.564027 0.204055
504 28 1 0.0629322 0.911329 0.558167 0.214315
490 28 2 -0.018412 0.754552 0.553778 0.222271
637 36 2 -0.0616365 0.731103 0.391688 0.246147
47 3 1 0.0622985 0.00699893 0.845838 0.241785
38 3 2 -0.0616365 0.061012 0.925695 0.221072
39 3 2 -0.0543881 0.105697 0.963604 0.233402
858 48 1 0.0622985 0.258562 0.7879 0.205786
859 48 1 0.0629322 0.178963 0.719795 0.243592
848 48 2 -0.0616365 0.253747 0.78583 0.245116
48 3 1 0.0622985 0.0350462 0.934408 0.189485
583 33 2 -0.0616365 0.597206 0.869164 0.235974
308 18 2 -0.0616365 0.422766 0.737951 0.204521
196 11 1 0.0622985 0.591319 0.690645 0.191344
592 33 1 0.0622985 0.567775 0.901855 0.218158
584 33 2 -0.0543881 0.625839 0.831172 0.205434
307 18 2 -0.0616365 0.427433 0.798171 0.208827
309 18 2 -0.0543881 0.433588 0.702588 0.242983
577 33 2 -0.0616365 0.734426 0.711665 0.218239
721 41 2 -0.0616365 0.956571 0.680366 0.244207
585 33 2 -0.018412 0.666806 0.791871 0.226781
296 17 2 -0.0543881 0.853089 0.934872 0.214049
731 41 1 0.0622985 0.952517 0.693735 0.207245
586 33 2 -0.0543881 0.693646 0.748734 0.197379
295 17 2 -0.0616365 0.885231 0.980205 0.193051
587 33 1 0.0622985 0.755908 0.679516 0.19412
305 17 1 0.0629322 0.817574 0.908755 0.195395
104 6 1 0.0629322 0.296878 0.212857 0.290394
237 14 2 -0.0543881 0.142899 0.158606 0.311709
244 14 2 -0.0543881 0.0282666 0.140777 0.278415
829 47 2 -0.0616365 0.229054 0.324398 0.298996
50 3 1 0.0629322 0.192981 0.0349342 0.266772
236 14 2 -0.0616365 0.127865 0.17489 0.264482
755 42 1 0.0629322 0.0272744 0.2637 0.307966
105 6 1 0.0622985 0.281537 0.110154 0.305231
95 6 2 -0.0543881 0.33131 0.189441 0.311865
830 47 2 -0.0616365 0.237759 0.321212 0.250578
440 25 2 -0.0543881 0.491803 0.0716687 0.253378
439 25 2 -0.0616365 0.4526 0.0254847 0.263033
449 25 1 0.0629322 0.538261 0.0623538 0.265682
103 6 1 0.0629322 0.358596 0.30822 0.308658
612 34 1 0.0629322 0.567465 0.262099 0.301017
605 34 1 0.0622985 0.627572 0.167963 0.305074
86 5 1 0.0629322 0.795657 0.202793 0.268898
87 5 1 0.0622985 0.905266 0.211646 0.275302
131 8 2 -0.0543881 0.82687 0.0826553 0.30298
140 8 1 0.0629322 0.859458 0.118692 0.307608
252 14 1 0.0629322 0.978752 0.133612 0.266944
132 8 2 -0.0616365 0.803545 0.0792052 0.256521
302 17 1 0.0629322 0.983293 0.0124613 0.275517
737 41 1 0.0629322 0.0842859 0.573939 0.296718
410 23 1 0.0629322 0.157872 0.47897 0.278375
401 23 2 -0.0543881 0.186951 0.514812 0.264923
406 23 2 -0.0543881 0.293792 0.630139 0.301585
837 47 2 -0.018412 0.294138 0.40452 0.303973
414 23 1 0.0629322 0.32504 0.664191 0.287688
729 41 2 -0.018412 0.00949967 0.630383 0.308946
400 23 2 -0.018412 0.224369 0.549886 0.293994
754 42 1 0.0622985 0.0744985 0.350383 0.268808
745 42 2 -0.0616365 0.0382906 0.356504 0.295016
405 23 2 -0.018412 0.259467 0.595149 0.271911
832 47 2 -0.018412 0.302791 0.402454 0.252864
753 42 1 0.0622985 0.0384066 0.450812 0.285326
730 41 2 -0.0543881 0.00195512 0.644857 0.261771
744 42 2 -0.0616365 0.0197171 0.412722 0.305607
834 47 2 -0.0616365 0.373208 0.482915 0.257958
195 11 1 0.0622985 0.582465 0.664551 0.27815
185 11 2 -0.0543881 0.553905 0.573524 0.26356
193 11 1 0.0629322 0.528496 0.457058 0.280452
835 47 2 -0.0616365 0.366741 0.483159 0.307583
194 11 1 0.0629322 0.553127 0.56137 0.301441
488 28 2 -0.0616365 0.798366 0.532129 0.298532
499 28 1 0.0629322 0.701194 0.535153 0.284591
645 36 1 0.0622985 0.789528 0.376825 0.307437
646 36 1 0.0622985 0.6938 0.384434 0.266837
487 28 2 -0.0616365 0.854932 0.541727 0.279834
636 36 2 -0.0616365 0.785719 0.385671 0.269091
489 28 2 -0.0543881 0.748685 0.538304 0.270119
644 36 1 0.0629322 0.883704 0.390394 0.256576
497 28 1 0.0622985 0.898099 0.537075 0.302423
857 48 1 0.0622985 0.320552 0.852022 0.260197
46 3 2 -0.0543881 0.07347 0.869299 0.292876
37 3 2 -0.0616365 0.0435249 0.87796 0.251935
847 48 2 -0.0616365 0.288101 0.823228 0.275629
849 48 2 -0.0543881 0.210428 0.751123 0.265725
40 3 2 -0.018412 0.138733 0.953895 0.275709
41 3 2 -0.0543881 0.180346 0.99636 0.289887
45 3 2 -0.018412 0.120996 0.909497 0.307605
581 33 2 -0.0543881 0.65196 0.836436 0.306021
447 25 1 0.0622985 0.36035 0.999535 0.255437
324 18 1 0.0629322 0.446323 0.870802 0.259666
310 18 2 -0.018412 0.449197 0.723473 0.288764
315 18 2 -0.018412 0.456379 0.784092 0.293174
448 25 1 0.0622985 0.466479 0.984304 0.280015
582 33 2 -0.0616365 0.610158 0.873999 0.28422
316 18 2 -0.0543881 0.441655 0.82042 0.252475
591 33 1 0.0622985 0.585199 0.905977 0.304864
143 8 1 0.0629322 0.709008 0.965276 0.266679
578 33 2 -0.0616365 0.749111 0.717835 0.265306
134 8 2 -0.0543881 0.74538 0.999973 0.282599
293 17 2 -0.0543881 0.947754 0.990198 0.261494
292 17 2 -0.018412 0.917168 0.943865 0.284201
579 33 2 -0.0543881 0.723071 0.758749 0.296686
298 17 2 -0.0543881 0.843395 0.86479 0.279269
306 17 1 0.0629322 0.812009 0.840386 0.255423
297 17 2 -0.018412 0.869915 0.916295 0.259634
732 41 1 0.0622985 0.883462 0.735227 0.264283
588 33 1 0.0622985 0.782033 0.68781 0.279128
580 33 2 -0.018412 0.68231 0.797523 0.275851
722 41 2 -0.0616365 0.919773 0.706518 0.278567
243 14 2 -0.018412 0.0430869 0.123166 0.324973
96 6 2 -0.0616365 0.319612 0.131144 0.322005
839 47 1 0.0622985 0.198317 0.290006 0.320106
242 14 2 -0.0543881 0.00291451 0.0979794 0.35798
238 14 2 -0.018412 0.0999906 0.133566 0.343319
746 42 2 -0.0543881 0.0137353 0.308796 0.317845
51 3 1 0.0622985 0.236555 0.0278941 0.346922
247 14 1 0.0629322 0.188801 0.164506 0.323342
92 6 2 -0.0616365 0.435433 0.305541 0.352575
604 34 2 -0.0543881 0.609591 0.259984 0.320605
603 34 2 -0.018412 0.631706 0.310919 0.343014
94 6 2 -0.018412 0.378608 0.217235 0.334544
595 34 2 -0.0616365 0.643984 0.209722 0.325334
97 6 2 -0.0616365 0.360117 0.100528 0.349571
99 6 2 -0.018412 0.418451 0.186381 0.362979
98 6 2 -0.0543881 0.407178 0.128064 0.368834
106 6 1 0.0622985 0.352969 0.0530134 0.354286
93 6 2 -0.0543881 0.387892 0.277647 0.329237
130 8 2 -0.018412 0.807785 0.0452766 0.342177
747 42 2 -0.018412 0.970511 0.314717 0.352293
135 8 2 -0.018412 0.767447 0.00310984 0.329898
596 34 2 -0.0616365 0.698002 0.207105 0.347625
251 14 1 0.0629322 0.954395 0.0892866 0.347122
756 42 1 0.0629322 0.959471 0.220024 0.366872
598 34 2 -0.018412 0.6866 0.308488 0.366944
606 34 1 0.0622985 0.723122 0.165392 0.346839
597 34 2 -0.0543881 0.719429 0.258041 0.36848
836 47 2 -0.0543881 0.324096 0.445325 0.330798
407 23 1 0.0622985 0.321365 0.654089 0.371251
845 47 1 0.0629322 0.318805 0.451236 0.37014
397 23 2 -0.0616365 0.292539 0.622516 0.350936
846 47 1 0.0629322 0.242006 0.369118 0.367313
409 23 1 0.0629322 0.200759 0.499543 0.360476
728 41 2 -0.0543881 0.0544367 0.592876 0.32293
838 47 2 -0.0543881 0.256764 0.366911 0.327918
399 23 2 -0.0543881 0.225784 0.539092 0.345698
398 23 2 -0.0616365 0.257982 0.578508 0.373489
727 41 2 -0.0616365 0.0650332 0.584762 0.370332
320 18 1 0.0629322 0.450159 0.639212 0.326476
844 47 1 0.0622985 0.394592 0.511138 0.330745
601 34 2 -0.0616365 0.619466 0.412095 0.361166
611 34 1 0.0629322 0.55777 0.365882 0.319765
610 34 1 0.0622985 0.592559 0.45467 0.356485
602 34 2 -0.0543881 0.598265 0.362237 0.340167
787 44 1 0.0629322 0.620413 0.620623 0.345106
102 6 1 0.0622985 0.442664 0.352857 0.348482
724 41 2 -0.018412 0.970647 0.65224 0.343259
498 28 1 0.0622985 0.79166 0.52494 0.33812
742 42 2 -0.018412 0.950524 0.372267 0.361847
743 42 2 -0.0543881 0.9735 0.421506 0.337998
752 42 1 0.0629322 0.950722 0.464614 0.346421
788 44 1 0.0629322 0.72428 0.641854 0.354847
851 48 2 -0.0543881 0.160481 0.713678 0.338871
856 48 2 -0.0543881 0.279929 0.820885 0.324164
860 48 1 0.0629322 0.135457 0.683645 0.314412
43 3 2 -0.0616365 0.188675 0.947213 0.367033
54 3 1 0.0629322 0.0599041 0.832054 0.316071
44 3 2 -0.0543881 0.147482 0.905275 0.351425
42 3 2 -0.0616365 0.204144 0.993084 0.33602
855 48 2 -0.018412 0.237073 0.788159 0.345552
850 48 2 -0.018412 0.203158 0.750208 0.317071
864 48 1 0.0629322 0.309931 0.84764 0.348901
53 3 1 0.0629322 0.131429 0.86282 0.372985
311 18 2 -0.0543881 0.455061 0.688736 0.329436
355 20 1 0.0629322 0.426005 0.94958 0.35826
354 20 1 0.0622985 0.536192 0.968453 0.361794
590 33 1 0.0629322 0.658994 0.839185 0.347097
314 18 2 -0.0543881 0.47333 0.807403 0.336868
323 18 1 0.0629322 0.484277 0.855143 0.341402
291 17 2 -0.0543881 0.929841 0.925434 0.331607
299 17 1 0.0622985 0.832958 0.805933 0.342223
289 17 2 -0.0616365 0.855077 0.847105 0.326664
301 17 1 0.0629322 0.964435 0.950619 0.353354
723 41 2 -0.0543881 0.925495 0.691678 0.327032
144 8 1 0.0629322 0.722358 0.927979 0.36211
136 8 2 -0.0543881 0.749185 0.967927 0.368593
733 41 1 0.0629322 0.894815 0.713432 0.354735
589 33 1 0.0629322 0.740252 0.759708 0.333886
290 17 2 -0.0616365 0.899278 0.876698 0.353821
239 14 2 -0.0543881 0.116492 0.115916 0.389277
547 31 2 -0.0616365 0.127157 0.303047 0.421036
241 14 2 -0.0616365 0.0185352 0.0864182 0.405169
240 14 2 -0.0616365 0.076111 0.0924252 0.419529
556 31 1 0.0622985 0.165203 0.298932 0.395966
431 24 1 0.0629322 0.268221 0.29354 0.422721
248 14 1 0.0629322 0.162302 0.121879 0.399838
432 24 1 0.0629322 0.259713 0.189659 0.434351
555 31 1 0.0622985 0.11986 0.209425 0.436308
108 6 1 0.0629322 0.499647 0.187118 0.402338
100 6 2 -0.0543881 0.467374 0.213973 0.383113
107 6 1 0.0629322 0.439208 0.104571 0.39253
101 6 1 0.0622985 0.517683 0.295539 0.394757
67 4 1 0.0629322 0.611719 0.285843 0.434789
66 4 1 0.0622985 0.624139 0.180969 0.41555
91 6 2 -0.0616365 0.476907 0.273347 0.377263
139 8 1 0.0629322 0.8659 0.0818295 0.400736
128 8 2 -0.0616365 0.810914 0.0150059 0.428597
607 34 1 0.0629322 0.761328 0.25932 0.388835
739 42 2 -0.0616365 0.896181 0.277965 0.407896
129 8 2 -0.0543881 0.828984 0.0505699 0.390944
250 14 1 0.0622985 0.982706 0.0687019 0.431736
749 42 1 0.0622985 0.878101 0.238663 0.42599
748 42 2 -0.0543881 0.94241 0.267908 0.37512
726 41 2 -0.0616365 0.0211586 0.60208 0.404349
557 31 1 0.0629322 0.124309 0.398485 0.412058
548 31 2 -0.0543881 0.103654 0.358036 0.429289
736 41 1 0.0622985 0.102106 0.557876 0.383324
408 23 1 0.0622985 0.259465 0.578276 0.410484
776 44 2 -0.0616365 0.572429 0.574689 0.401251
777 44 2 -0.0543881 0.62353 0.596846 0.381445
786 44 1 0.0622985 0.530279 0.582048 0.383974
609 34 1 0.0622985 0.691234 0.447358 0.407402
725 41 2 -0.0543881 0.973852 0.635474 0.390666
600 34 2 -0.0616365 0.671994 0.409728 0.388426
608 34 1 0.0629322 0.747666 0.355471 0.413426
779 44 2 -0.0543881 0.728583 0.613485 0.386151
734 41 1 0.0629322 0.942575 0.654669 0.416351
778 44 2 -0.018412 0.678973 0.589815 0.404664
789 44 1 0.0622985 0.829934 0.622828 0.395564
599 34 2 -0.0543881 0.705155 0.358234 0.390984
741 42 2 -0.0543881 0.903337 0.381794 0.394249
751 42 1 0.0629322 0.886426 0.425111 0.401556
740 42 2 -0.0616365 0.8778 0.335577 0.417899
780 44 2 -0.0616365 0.785077 0.601934 0.406911
173 10 1 0.0622985 0.0311167 0.92212 0.41723
861 48 1 0.0622985 0.109216 0.687709 0.401997
356 20 1 0.0629322 0.333146 0.939542 0.396892
52 3 1 0.0622985 0.208679 0.943182 0.401756
852 48 2 -0.0616365 0.147013 0.717482 0.38832
854 48 2 -0.0543881 0.22402 0.78669 0.395651
863 48 1 0.0629322 0.250839 0.818168 0.418614
853 48 2 -0.0616365 0.179353 0.752838 0.415603
344 20 2 -0.0616365 0.507339 0.97158 0.394332
313 18 2 -0.0616365 0.476698 0.772525 0.37869
347 20 2 -0.0543881 0.352528 0.951135 0.430406
345 20 2 -0.0543881 0.447294 0.959883 0.392364
321 18 1 0.0622985 0.466246 0.683425 0.40731
346 20 2 -0.018412 0.413945 0.962211 0.433193
322 18 1 0.0622985 0.48699 0.794274 0.414437
233 13 1 0.0629322 0.641253 0.797507 0.429264
312 18 2 -0.0616365 0.465587 0.71241 0.375171
127 8 2 -0.0616365 0.770012 0.967716 0.416346
232 13 1 0.0622985 0.743962 0.826426 0.415553
300 17 1 0.0622985 0.910551 0.861783 0.388339
546 31 2 -0.0616365 0.101616 0.254638 0.442408
545 31 2 -0.0543881 0.0522666 0.261752 0.471881
422 24 2 -0.0543881 0.309501 0.294676 0.443972
554 31 1 0.0629322 0.0340305 0.224134 0.490596
424 24 2 -0.0543881 0.306073 0.190664 0.451145
249 14 1 0.0622985 0.0911803 0.0826163 0.456511
544 31 2 -0.018412 0.0284863 0.315693 0.47963
415 24 2 -0.0616365 0.332454 0.137475 0.462483
425 24 1 0.0622985 0.310924 0.0928882 0.453376
423 24 2 -0.018412 0.334617 0.242054 0.459823
419 24 2 -0.0543881 0.415325 0.295122 0.494878
418 24 2 -0.018412 0.388061 0.241827 0.485222
55 4 2 -0.0616365 0.603424 0.153166 0.489274
416 24 2 -0.0616365 0.387164 0.136227 0.485445
57 4 2 -0.0543881 0.605878 0.253022 0.460851
56 4 2 -0.0616365 0.612262 0.193718 0.450561
65 4 1 0.0622985 0.60687 0.103775 0.481449
426 24 1 0.0622985 0.406355 0.0919978 0.496585
417 24 2 -0.0543881 0.416094 0.189349 0.497954
138 8 1 0.0622985 0.831521 0.0192809 0.464148
696 39 1 0.0622985 0.793897 0.139448 0.484334
549 31 2 -0.018412 0.0546635 0.36498 0.457908
550 31 2 -0.0543881 0.030605 0.417894 0.467316
430 24 1 0.0622985 0.31336 0.388773 0.445894
735 41 1 0.0622985 0.0217273 0.592422 0.442348
558 31 1 0.0629322 0.049284 0.460409 0.451367
429 24 1 0.0622985 0.408859 0.392856 0.493459
421 24 2 -0.0616365 0.336995 0.346858 0.455581
793 45 2 -0.0616365 0.394487 0.597139 0.493429
803 45 1 0.0622985 0.422785 0.56196 0.479421
775 44 2 -0.0616365 0.574326 0.541161 0.443817
784 44 2 -0.0543881 0.629418 0.532458 0.466227
810 45 1 0.0629322 0.458984 0.664179 0.493285
420 24 2 -0.0616365 0.390366 0.348198 0.481204
68 4 1 0.0629322 0.592276 0.364859 0.485637
785 44 1 0.0622985 0.533087 0.520657 0.458639
781 44 2 -0.0616365 0.787768 0.567313 0.447956
782 44 2 -0.0543881 0.735519 0.546474 0.467573
790 44 1 0.0622985 0.832084 0.561015 0.464697
783 44 2 -0.018412 0.681973 0.554201 0.445659
750 42 1 0.0622985 0.840658 0.346066 0.445047
541 31 2 -0.0616365 0.979583 0.427115 0.492567
551 31 1 0.0622985 0.961767 0.473581 0.493585
172 10 2 -0.0543881 0.0205453 0.842642 0.460435
163 10 2 -0.0616365 0.00813389 0.90118 0.447395
348 20 2 -0.0616365 0.320386 0.950285 0.474001
179 10 1 0.0629322 0.0206456 0.727692 0.486995
862 48 1 0.0622985 0.171107 0.759536 0.455809
180 10 1 0.0629322 0.0580023 0.821798 0.438255
357 20 1 0.0622985 0.271959 0.940317 0.47099
353 20 1 0.0622985 0.583382 0.993157 0.445688
351 20 2 -0.018412 0.438438 0.973979 0.4784
343 20 2 -0.0616365 0.534744 0.984015 0.439162
226 13 2 -0.0543881 0.609116 0.704847 0.489016
225 13 2 -0.018412 0.66604 0.726742 0.484013
234 13 1 0.0629322 0.569189 0.719538 0.46979
352 20 2 -0.0543881 0.497237 0.983844 0.479754
221 13 2 -0.0543881 0.771078 0.719061 0.499368
222 13 2 -0.0616365 0.781319 0.762247 0.465386
164 10 2 -0.0616365 0.963203 0.931683 0.470442
231 13 1 0.0622985 0.828127 0.775818 0.457631
224 13 2 -0.0543881 0.677672 0.771862 0.450308
174 10 1 0.0622985 0.953127 0.978616 0.459935
223 13 2 -0.0616365 0.734448 0.789578 0.443058
171 10 2 -0.018412 0.986662 0.815577 0.49828
137 8 1 0.0622985 0.751528 0.934987 0.444259
390 22 1 0.0622985 0.134117 0.00220623 0.541411
259 15 2 -0.0616365 0.225128 0.140855 0.547565
258 15 2 -0.0616365 0.225425 0.20282 0.548837
267 15 1 0.0622985 0.187075 0.229522 0.533328
268 15 1 0.0622985 0.190521 0.113804 0.526969
427 24 1 0.0629322 0.459856 0.187982 0.519197
428 24 1 0.0629322 0.455642 0.296097 0.516326
59 4 2 -0.0543881 0.58386 0.331243 0.516317
58 4 2 -0.018412 0.588466 0.27149 0.508016
64 4 2 -0.0543881 0.584393 0.171909 0.53551
63 4 2 -0.018412 0.577796 0.231958 0.544235
697 39 1 0.0629322 0.882528 0.103837 0.526666
694 39 2 -0.0543881 0.815768 0.262192 0.554561
687 39 2 -0.0543881 0.865671 0.149505 0.534949
686 39 2 -0.0616365 0.814825 0.168519 0.510669
553 31 1 0.0629322 0.955024 0.284911 0.521793
685 39 2 -0.0616365 0.790547 0.224319 0.520934
543 31 2 -0.0543881 0.976131 0.324548 0.507259
702 39 1 0.0629322 0.795304 0.304132 0.560907
695 39 1 0.0622985 0.748937 0.237784 0.500423
333 19 2 -0.018412 0.116213 0.478772 0.557975
335 19 1 0.0622985 0.198602 0.359805 0.527922
325 19 2 -0.0616365 0.165523 0.386683 0.546957
804 45 1 0.0622985 0.321505 0.536457 0.503952
795 45 2 -0.0543881 0.297965 0.62693 0.519989
341 19 1 0.0629322 0.139448 0.563688 0.519437
342 19 1 0.0629322 0.184665 0.462715 0.506842
334 19 2 -0.0543881 0.155979 0.444478 0.534666
805 45 1 0.0629322 0.252237 0.6156 0.530147
332 19 2 -0.0543881 0.108613 0.538558 0.54746
794 45 2 -0.0616365 0.33758 0.582856 0.506506
217 13 2 -0.0616365 0.600264 0.659524 0.523661
227 13 1 0.0622985 0.558099 0.64008 0.531804
218 13 2 -0.0616365 0.646235 0.636255 0.550257
60 4 2 -0.0616365 0.567416 0.352151 0.56156
802 45 2 -0.0543881 0.415159 0.652513 0.501263
792 44 1 0.0629322 0.632549 0.507598 0.501051
791 44 1 0.0629322 0.737793 0.520892 0.501706
542 31 2 -0.0616365 0.950488 0.379455 0.511928
552 31 1 0.0622985 0.907722 0.386209 0.528864
156 9 1 0.0622985 0.790216 0.397941 0.525429
219 13 2 -0.0543881 0.703537 0.656189 0.543573
157 9 1 0.0629322 0.851222 0.481224 0.548597
146 9 2 -0.0616365 0.772695 0.431266 0.551359
155 9 1 0.0622985 0.687494 0.386337 0.556969
797 45 2 -0.0543881 0.277532 0.730247 0.534619
391 22 1 0.0629322 0.166971 0.893175 0.557347
796 45 2 -0.018412 0.316868 0.686789 0.52264
358 20 1 0.0622985 0.321952 0.968067 0.552232
798 45 2 -0.0616365 0.295817 0.789127 0.536481
807 45 1 0.0622985 0.264946 0.826083 0.544503
806 45 1 0.0629322 0.229978 0.718944 0.544401
800 45 2 -0.0543881 0.394373 0.757282 0.513355
360 20 1 0.0629322 0.524115 0.993558 0.511716
801 45 2 -0.018412 0.376544 0.698645 0.512747
809 45 1 0.0629322 0.44405 0.76912 0.509097
350 20 2 -0.0543881 0.406333 0.973857 0.5209
613 35 2 -0.0616365 0.633786 0.873409 0.551365
359 20 1 0.0629322 0.43108 0.977878 0.557779
349 20 2 -0.0616365 0.346195 0.964755 0.518452
799 45 2 -0.0616365 0.356155 0.801695 0.528482
808 45 1 0.0622985 0.374635 0.847904 0.530332
630 35 1 0.0629322 0.569114 0.80585 0.537096
622 35 2 -0.0543881 0.57898 0.848113 0.556705
178 10 1 0.0622985 0.963377 0.680808 0.5498
623 35 1 0.0622985 0.666761 0.847809 0.527621
169 10 2 -0.0616365 0.95608 0.72938 0.542717
220 13 2 -0.018412 0.715348 0.701486 0.511199
230 13 1 0.0629322 0.810441 0.697313 0.518261
165 10 2 -0.0543881 0.932723 0.906567 0.509836
166 10 2 -0.018412 0.945462 0.848788 0.524063
167 10 2 -0.0543881 0.911265 0.821581 0.560312
170 10 2 -0.0543881 0.990928 0.756215 0.508839
175 10 1 0.0629322 0.900595 0.935507 0.52734
260 15 2 -0.0543881 0.271546 0.110273 0.568458
336 19 1 0.0622985 0.148023 0.31464 0.593029
257 15 2 -0.0543881 0.271483 0.234152 0.569896
269 15 1 0.0629322 0.27573 0.0605177 0.566686
261 15 2 -0.018412 0.319744 0.142138 0.589178
256 15 2 -0.018412 0.317365 0.203739 0.590427
266 15 1 0.0629322 0.270915 0.284376 0.568419
389 22 1 0.0622985 0.0423795 0.0378076 0.573955
61 4 2 -0.0616365 0.55987 0.313768 0.599454
265 15 1 0.0629322 0.365562 0.286524 0.609425
255 15 2 -0.0543881 0.36596 0.234737 0.610796
270 15 1 0.0629322 0.373147 0.0642 0.610012
262 15 2 -0.0543881 0.369248 0.11292 0.608466
72 4 1 0.0629322 0.577749 0.13957 0.563749
62 4 2 -0.0543881 0.563547 0.253663 0.589892
71 4 1 0.0629322 0.555132 0.220322 0.61931
16 1 1 0.0622985 0.774035 0.0201165 0.583657
7 1 2 -0.0616365 0.787907 0.0508261 0.613427
693 39 2 -0.018412 0.8669 0.244373 0.579172
689 39 2 -0.0543881 0.941493 0.168192 0.596153
6 1 2 -0.0616365 0.752916 0.10026 0.617877
688 39 2 -0.018412 0.891746 0.186811 0.569437
701 39 1 0.0629322 0.871124 0.325123 0.62458
692 39 2 -0.0543881 0.891558 0.280309 0.61561
15 1 1 0.0622985 0.715047 0.107831 0.596376
698 39 1 0.0629322 0.962613 0.126181 0.590213
326 19 2 -0.0616365 0.133826 0.360401 0.583645
327 19 2 -0.0543881 0.0916082 0.392392 0.607494
328 19 2 -0.018412 0.0834895 0.453739 0.594944
330 19 2 -0.0616365 0.0308267 0.546161 0.606101
329 19 2 -0.0543881 0.0388838 0.487133 0.616919
331 19 2 -0.0616365 0.0662768 0.572998 0.572168
340 19 1 0.0622985 0.058627 0.620662 0.563917
162 9 1 0.0629322 0.650734 0.45751 0.615221
569 32 1 0.0622985 0.496449 0.571195 0.57134
559 32 2 -0.0616365 0.496837 0.543731 0.606557
568 32 2 -0.0543881 0.475421 0.486512 0.608774
69 4 1 0.0622985 0.568256 0.401088 0.567547
228 13 1 0.0622985 0.636203 0.596727 0.577284
576 32 1 0.0629322 0.453894 0.46418 0.58073
149 9 2 -0.0543881 0.828651 0.563915 0.614884
153 9 2 -0.018412 0.73446 0.511784 0.620632
148 9 2 -0.018412 0.790491 0.518764 0.600657
145 9 2 -0.0616365 0.716009 0.425275 0.568466
158 9 1 0.0629322 0.871072 0.56776 0.599738
229 13 1 0.0629322 0.739202 0.631788 0.565749
147 9 2 -0.0543881 0.806643 0.47652 0.565589
154 9 2 -0.0543881 0.696295 0.465276 0.603312
381 22 2 -0.0543881 0.124164 0.91121 0.571092
380 22 2 -0.0616365 0.108436 0.969075 0.562792
379 22 2 -0.0616365 0.0547951 0.98933 0.581109
392 22 1 0.0629322 0.141728 0.794293 0.590491
382 22 2 -0.018412 0.0866727 0.871917 0.599311
387 22 2 -0.018412 0.0355655 0.89472 0.620064
388 22 2 -0.0543881 0.0205485 0.95372 0.610298
383 22 2 -0.0543881 0.100137 0.811369 0.607381
614 35 2 -0.0616365 0.647677 0.925943 0.573926
619 35 2 -0.0616365 0.443421 0.874365 0.62435
615 35 2 -0.0543881 0.60542 0.953609 0.603457
621 35 2 -0.018412 0.539061 0.875219 0.586341
629 35 1 0.0629322 0.477096 0.80511 0.57786
620 35 2 -0.0543881 0.48616 0.847782 0.594827
616 35 2 -0.018412 0.550043 0.92831 0.607522
625 35 1 0.0629322 0.614217 0.998549 0.621518
168 10 2 -0.0616365 0.916394 0.763872 0.567995
176 10 1 0.0629322 0.879289 0.848342 0.580904
177 10 1 0.0622985 0.889098 0.748421 0.597353
396 22 1 0.0629322 0.978876 0.969119 0.624503
624 35 1 0.0622985 0.692064 0.944544 0.569061
897 50 1 0.0622985 0.161231 0.100904 0.645892
699 39 1 0.0622985 0.00552947 0.186437 0.648929
896 50 1 0.0629322 0.215994 0.00328923 0.643399
120 7 1 0.0622985 0.245005 0.211334 0.672087
887 50 2 -0.0543881 0.172588 0.00990511 0.663268
888 50 2 -0.0616365 0.141639 0.0638354 0.664193
684 38 1 0.0629322 0.10379 0.283628 0.683774
263 15 1 0.0622985 0.458311 0.123731 0.641838
253 15 2 -0.0616365 0.416898 0.14479 0.627502
264 15 1 0.0622985 0.454162 0.230052 0.644616
70 4 1 0.0622985 0.551022 0.32935 0.63739
29 2 1 0.0622985 0.58987 0.158429 0.672717
254 15 2 -0.0616365 0.416168 0.20621 0.629782
717 40 1 0.0622985 0.666641 0.326406 0.681005
700 39 1 0.0622985 0.95587 0.288797 0.670775
14 1 1 0.0629322 0.740897 0.185707 0.653451
5 1 2 -0.0543881 0.76738 0.142683 0.650022
690 39 2 -0.0616365 0.964646 0.204675 0.630999
691 39 2 -0.0616365 0.940058 0.260038 0.642144
9 1 2 -0.018412 0.85052 0.0823928 0.676639
4 1 2 -0.018412 0.8173 0.136034 0.679128
8 1 2 -0.0543881 0.834153 0.0388667 0.643175
718 40 1 0.0622985 0.759736 0.331667 0.63609
337 19 1 0.0629322 0.0666622 0.370786 0.637946
677 38 1 0.0622985 0.18948 0.356538 0.672512
338 19 1 0.0629322 0.0129887 0.465314 0.64495
284 16 1 0.0629322 0.154444 0.609512 0.651683
275 16 2 -0.0543881 0.202644 0.59423 0.652093
285 16 1 0.0622985 0.179904 0.500512 0.650274
277 16 2 -0.0616365 0.272474 0.512588 0.648495
276 16 2 -0.0616365 0.2151 0.533204 0.652502
274 16 2 -0.018412 0.248157 0.635343 0.651484
279 16 2 -0.018412 0.306487 0.615998 0.652724
278 16 2 -0.0543881 0.318428 0.55466 0.651219
286 16 1 0.0622985 0.284296 0.464899 0.643948
566 32 2 -0.0543881 0.446971 0.400832 0.656158
287 16 1 0.0629322 0.364818 0.537547 0.65195
570 32 1 0.0622985 0.546669 0.609541 0.640588
575 32 1 0.0629322 0.420623 0.376468 0.62796
560 32 2 -0.0616365 0.529369 0.565986 0.644012
567 32 2 -0.018412 0.477249 0.453947 0.65181
280 16 2 -0.0543881 0.350509 0.659099 0.653839
288 16 1 0.0629322 0.398206 0.647564 0.657021
561 32 2 -0.0543881 0.534169 0.53543 0.686515
159 9 1 0.0622985 0.839963 0.642195 0.664438
709 40 2 -0.0616365 0.752707 0.363252 0.668782
151 9 2 -0.0616365 0.754499 0.598884 0.668906
719 40 1 0.0629322 0.838769 0.411981 0.660892
152 9 2 -0.0543881 0.719901 0.550379 0.656288
150 9 2 -0.0616365 0.809744 0.605967 0.649636
161 9 1 0.0629322 0.678415 0.544908 0.67605
516 29 1 0.0622985 0.947855 0.645254 0.679595
710 40 2 -0.0543881 0.795 0.403337 0.682795
339 19 1 0.0622985 0.995636 0.571337 0.626151
393 22 1 0.0622985 0.0798258 0.72993 0.64497
384 22 2 -0.0616365 0.0670191 0.77534 0.637301
895 50 1 0.0629322 0.229663 0.907374 0.675025
385 22 2 -0.0616365 0.0179322 0.80042 0.659817
282 16 1 0.0622985 0.267615 0.785046 0.647946
272 16 2 -0.0616365 0.27748 0.736721 0.650552
386 22 2 -0.0543881 0.000319128 0.857818 0.649768
273 16 2 -0.0543881 0.233409 0.693664 0.652273
283 16 1 0.0629322 0.185809 0.704116 0.650122
626 35 1 0.0629322 0.518423 0.998543 0.654486
617 35 2 -0.0543881 0.507189 0.956898 0.634798
618 35 2 -0.0616365 0.45321 0.930393 0.643692
480 27 1 0.0622985 0.598618 0.71518 0.65696
281 16 1 0.0622985 0.371465 0.755678 0.654034
627 35 1 0.0622985 0.41967 0.953343 0.667216
271 16 2 -0.0616365 0.336617 0.719037 0.654209
479 27 1 0.0622985 0.512511 0.773598 0.671412
628 35 1 0.0622985 0.401749 0.853945 0.631816
394 22 1 0.0622985 0.987693 0.772577 0.683993