ITEM: TIMESTEP
0
ITEM: NUMBER OF ATOMS
900
ITEM: BOX BOUNDS pp pp pp
7.2048547580331501e-01 2.1269107524196713e+01
7.2048547580331501e-01 2.1269107524196713e+01
1.0873363943320696e+03 1.1116228976679304e+03
ITEM: ATOMS id mol type q xs ys zs
452 26 2 -0.0616365 0.368747 0.00260672 0.0358158
124 7 1 0.0622985 0.0769628 0.252836 0.0145514
463 26 1 0.0629322 0.304512 0.07952 0.0349205
48 3 1 0.0622985 0.184689 0.0124645 0.0110136
373 21 1 0.0629322 0.202861 0.499188 0.0121342
453 26 2 -0.0543881 0.353313 0.0648293 0.0213084
38 3 2 -0.0616365 0.16766 0.00424524 0.0537809
81 5 2 -0.018412 0.813254 0.217842 0.0025454
302 17 1 0.0629322 0.979596 0.0574753 0.0564911
140 8 1 0.0629322 0.743927 0.0834574 0.0260764
443 25 1 0.0622985 0.546223 0.282443 0.0538596
635 36 2 -0.0543881 0.716829 0.406397 0.00567049
89 5 1 0.0629322 0.91399 0.225739 0.0305127
80 5 2 -0.0543881 0.862202 0.236681 0.0375856
293 17 2 -0.0543881 0.936259 0.0342146 0.040557
638 36 2 -0.0543881 0.6114 0.47701 0.0291465
636 36 2 -0.0616365 0.702857 0.423088 0.0594954
132 8 2 -0.0616365 0.669819 0.01316 0.0285662
131 8 2 -0.0543881 0.713603 0.0516493 0.0519973
76 5 2 -0.018412 0.753004 0.23656 0.0128565
77 5 2 -0.0543881 0.740151 0.267793 0.0611379
372 21 1 0.0622985 0.116127 0.570906 0.0301704
462 26 1 0.0622985 0.336168 0.971774 0.0615852
451 26 2 -0.0616365 0.427702 0.976288 0.0222633
461 26 1 0.0622985 0.440609 0.925773 0.0344618
188 11 2 -0.0543881 0.463013 0.587291 0.0365566
318 18 1 0.0622985 0.356155 0.71889 0.0286502
47 3 1 0.0622985 0.0770878 0.965819 0.0330947
197 11 1 0.0629322 0.446848 0.543389 0.0138781
317 18 1 0.0622985 0.407314 0.820052 0.0205367
722 41 2 -0.0616365 0.00253687 0.707204 0.0587579
732 41 1 0.0622985 0.00576616 0.731177 0.0194877
187 11 2 -0.0616365 0.486211 0.638758 0.00756703
362 21 2 -0.0616365 0.154817 0.58805 0.00611955
499 28 1 0.0629322 0.641574 0.638911 0.048652
489 28 2 -0.0543881 0.685723 0.611658 0.0496487
195 11 1 0.0622985 0.539424 0.728094 0.008977
583 33 2 -0.0616365 0.626777 0.814392 0.00966875
495 28 2 -0.018412 0.777225 0.572278 0.00312491
577 33 2 -0.0616365 0.827564 0.718187 0.00639824
186 11 2 -0.0616365 0.515942 0.688985 0.0348842
647 36 1 0.0629322 0.568917 0.504477 0.0392786
490 28 2 -0.018412 0.716439 0.598752 0.00211977
585 33 2 -0.018412 0.72994 0.76922 0.00708926
578 33 2 -0.0616365 0.831522 0.725982 0.0603729
731 41 1 0.0622985 0.992234 0.609464 0.0273551
142 8 1 0.0622985 0.59415 0.945748 0.0410974
297 17 2 -0.018412 0.843242 0.96647 0.0532995
496 28 2 -0.0543881 0.804848 0.555913 0.0521634
504 28 1 0.0629322 0.85221 0.538705 0.0477044
133 8 2 -0.0616365 0.628685 0.975524 0.0611859
296 17 2 -0.0543881 0.824285 0.975223 0.00200371
252 14 1 0.0629322 0.0264135 0.147208 0.117891
245 14 1 0.0622985 0.134288 0.180307 0.0876762
434 25 2 -0.0616365 0.451966 0.261589 0.0807994
444 25 1 0.0622985 0.431734 0.305121 0.0650403
441 25 2 -0.018412 0.498286 0.146966 0.120632
198 11 1 0.0629322 0.419607 0.488838 0.101403
445 25 1 0.0629322 0.361047 0.22946 0.109132
49 3 1 0.0629322 0.251298 0.0390323 0.0925801
436 25 2 -0.018412 0.434032 0.160737 0.124303
435 25 2 -0.0543881 0.412138 0.220182 0.107671
39 3 2 -0.0543881 0.20085 0.0240963 0.0989264
88 5 1 0.0622985 0.889574 0.279045 0.115418
433 25 2 -0.0616365 0.515253 0.247141 0.0761705
79 5 2 -0.0616365 0.849143 0.266971 0.0865158
78 5 2 -0.0616365 0.788213 0.280506 0.0980276
86 5 1 0.0629322 0.691042 0.283284 0.0741578
637 36 2 -0.0616365 0.65123 0.456919 0.071233
645 36 1 0.0622985 0.737084 0.413945 0.091973
646 36 1 0.0622985 0.642478 0.476893 0.110617
442 25 2 -0.0543881 0.538689 0.189735 0.0971988
139 8 1 0.0629322 0.79991 0.115883 0.104724
754 42 1 0.0622985 0.984588 0.444699 0.0984099
450 25 1 0.0629322 0.589908 0.179428 0.0891768
130 8 2 -0.018412 0.719747 0.0488901 0.107558
46 3 2 -0.0543881 0.0878059 0.965197 0.116104
847 48 2 -0.0616365 0.254442 0.866792 0.113294
54 3 1 0.0629322 0.0399066 0.94277 0.122474
857 48 1 0.0622985 0.274801 0.8839 0.0731863
184 11 2 -0.018412 0.498787 0.63312 0.119288
858 48 1 0.0622985 0.176119 0.818193 0.0748796
412 23 1 0.0622985 0.168719 0.632358 0.108615
723 41 2 -0.0543881 0.00838519 0.746184 0.103812
733 41 1 0.0629322 0.0100605 0.799108 0.0998219
190 11 2 -0.0543881 0.443499 0.530542 0.120913
848 48 2 -0.0616365 0.197863 0.832408 0.114258
316 18 2 -0.0543881 0.418868 0.831766 0.11108
309 18 2 -0.0543881 0.360775 0.714966 0.117478
308 18 2 -0.0616365 0.373362 0.741092 0.0677136
37 3 2 -0.0616365 0.110369 0.976106 0.0646222
189 11 2 -0.018412 0.467084 0.584283 0.0921669
319 18 1 0.0629322 0.33466 0.667369 0.119071
324 18 1 0.0629322 0.44298 0.876819 0.106818
411 23 1 0.0622985 0.107486 0.531198 0.123915
307 18 2 -0.0616365 0.404288 0.799201 0.0630338
582 33 2 -0.0616365 0.630606 0.817728 0.0663405
579 33 2 -0.0543881 0.782939 0.750903 0.0902358
292 17 2 -0.018412 0.897013 0.996594 0.0729063
487 28 2 -0.0616365 0.774154 0.570395 0.099783
488 28 2 -0.0616365 0.714933 0.598445 0.0979085
588 33 1 0.0622985 0.872256 0.706294 0.083056
134 8 2 -0.0543881 0.634528 0.973839 0.116962
738 41 1 0.0629322 0.99345 0.558002 0.115755
730 41 2 -0.0543881 0.992353 0.612158 0.113053
306 17 1 0.0629322 0.760542 0.914597 0.0667095
581 33 2 -0.0543881 0.683684 0.797255 0.090747
298 17 2 -0.0543881 0.805918 0.926617 0.0832961
185 11 2 -0.0543881 0.519993 0.686237 0.0901965
591 33 1 0.0622985 0.588342 0.832794 0.0890217
194 11 1 0.0629322 0.545175 0.728211 0.109964
580 33 2 -0.018412 0.732686 0.775788 0.0626533
721 41 2 -0.0616365 0.991882 0.64151 0.0639138
437 25 2 -0.0543881 0.393247 0.115998 0.144867
246 14 1 0.0622985 0.220071 0.196378 0.14921
438 25 2 -0.0616365 0.413767 0.0584224 0.160668
439 25 2 -0.0616365 0.477498 0.0444988 0.160106
244 14 2 -0.0543881 0.0654856 0.152356 0.148243
755 42 1 0.0629322 0.0092216 0.337266 0.135873
446 25 1 0.0629322 0.341207 0.128872 0.143293
447 25 1 0.0622985 0.377203 0.0237982 0.171897
448 25 1 0.0622985 0.495048 0.00184298 0.177474
40 3 2 -0.018412 0.180069 0.0163816 0.151199
235 14 2 -0.0616365 0.125182 0.169547 0.129599
236 14 2 -0.0616365 0.173115 0.180833 0.165863
840 47 1 0.0622985 0.20493 0.412879 0.155818
50 3 1 0.0629322 0.267498 0.0430808 0.185873
449 25 1 0.0629322 0.572766 0.0807797 0.144018
744 42 2 -0.0616365 0.918523 0.470438 0.163666
301 17 1 0.0629322 0.955849 0.00160728 0.147209
745 42 2 -0.0616365 0.958902 0.427649 0.135685
135 8 2 -0.018412 0.678883 0.0113291 0.139922
746 42 2 -0.0543881 0.976663 0.371918 0.157767
87 5 1 0.0622985 0.783314 0.306543 0.138456
129 8 2 -0.0543881 0.766663 0.0863122 0.130012
128 8 2 -0.0616365 0.76914 0.0875955 0.184967
440 25 2 -0.0543881 0.519289 0.0901623 0.139849
181 11 2 -0.0616365 0.457559 0.524296 0.172826
859 48 1 0.0629322 0.132085 0.781547 0.160186
310 18 2 -0.018412 0.378146 0.744322 0.164047
849 48 2 -0.0543881 0.175663 0.81331 0.162272
856 48 2 -0.0543881 0.282213 0.887218 0.159483
864 48 1 0.0629322 0.326535 0.91912 0.155626
403 23 2 -0.0616365 0.165729 0.60859 0.147494
402 23 2 -0.0616365 0.13365 0.554024 0.159615
724 41 2 -0.018412 0.0054958 0.715966 0.15374
413 23 1 0.0629322 0.229135 0.682645 0.180619
315 18 2 -0.018412 0.40858 0.804731 0.160819
45 3 2 -0.018412 0.122054 0.988725 0.159416
183 11 2 -0.0543881 0.505376 0.629143 0.174473
299 17 1 0.0622985 0.785708 0.886699 0.158993
289 17 2 -0.0616365 0.819899 0.916018 0.135269
498 28 1 0.0622985 0.690344 0.615606 0.133872
290 17 2 -0.0616365 0.876689 0.941479 0.157279
143 8 1 0.0629322 0.599913 0.946858 0.143184
753 42 1 0.0622985 0.909721 0.516496 0.141616
590 33 1 0.0629322 0.692019 0.805871 0.135532
729 41 2 -0.018412 0.995227 0.650818 0.158602
589 33 1 0.0629322 0.787699 0.755947 0.136065
497 28 1 0.0622985 0.790571 0.559229 0.140457
291 17 2 -0.0543881 0.914287 0.981565 0.125751
831 47 2 -0.0543881 0.268476 0.448877 0.219752
237 14 2 -0.0543881 0.160857 0.173716 0.219042
41 3 2 -0.0543881 0.219056 0.0287219 0.19367
191 11 1 0.0622985 0.442477 0.481004 0.195458
243 14 2 -0.018412 0.0536557 0.14475 0.203944
104 6 1 0.0629322 0.405337 0.280231 0.239103
841 47 1 0.0629322 0.268946 0.498095 0.202703
410 23 1 0.0629322 0.0965663 0.491979 0.218693
238 14 2 -0.018412 0.102664 0.154029 0.239508
829 47 2 -0.0616365 0.232512 0.342399 0.213519
105 6 1 0.0622985 0.333992 0.193889 0.221607
830 47 2 -0.0616365 0.233134 0.402859 0.193453
42 3 2 -0.0616365 0.19829 0.0231092 0.244528
839 47 1 0.0622985 0.208217 0.301656 0.192586
247 14 1 0.0629322 0.20256 0.185372 0.246296
743 42 2 -0.0543881 0.893303 0.45299 0.211568
747 42 2 -0.018412 0.949947 0.35344 0.206522
756 42 1 0.0629322 0.997539 0.262511 0.207534
242 14 2 -0.0543881 0.993614 0.121162 0.221968
742 42 2 -0.018412 0.907414 0.392809 0.23373
748 42 2 -0.0543881 0.962882 0.293971 0.226897
611 34 1 0.0629322 0.539468 0.407119 0.210623
606 34 1 0.0622985 0.685201 0.168755 0.238287
609 34 1 0.0622985 0.720898 0.48139 0.238965
612 34 1 0.0629322 0.521972 0.291075 0.210959
604 34 2 -0.0543881 0.574996 0.286021 0.217576
599 34 2 -0.0543881 0.716755 0.380112 0.234837
595 34 2 -0.0616365 0.601687 0.227589 0.221824
601 34 2 -0.0616365 0.627524 0.448188 0.227603
607 34 1 0.0629322 0.757456 0.256924 0.235099
251 14 1 0.0629322 0.956715 0.109368 0.192556
136 8 2 -0.0543881 0.686977 0.00859795 0.195207
596 34 2 -0.0616365 0.664789 0.216106 0.232256
597 34 2 -0.0543881 0.704461 0.266629 0.234755
610 34 1 0.0622985 0.610648 0.496204 0.223897
602 34 2 -0.0543881 0.589641 0.396611 0.221151
127 8 2 -0.0616365 0.730848 0.0503413 0.218023
605 34 1 0.0622985 0.568428 0.18728 0.218412
600 34 2 -0.0616365 0.68974 0.439367 0.235137
603 34 2 -0.018412 0.614741 0.337958 0.22362
138 8 1 0.0622985 0.802686 0.11578 0.20557
598 34 2 -0.018412 0.678919 0.326648 0.233194
752 42 1 0.0629322 0.860567 0.481323 0.23441
608 34 1 0.0629322 0.769373 0.378092 0.236127
323 18 1 0.0629322 0.465795 0.873035 0.201181
855 48 2 -0.018412 0.255916 0.868553 0.209541
401 23 2 -0.0543881 0.127297 0.534271 0.211019
314 18 2 -0.0543881 0.436525 0.829699 0.205707
53 3 1 0.0629322 0.0528647 0.968314 0.221028
44 3 2 -0.0543881 0.101652 0.982885 0.212148
850 48 2 -0.018412 0.199442 0.833054 0.210083
725 41 2 -0.0543881 0.0128538 0.75183 0.198126
320 18 1 0.0629322 0.355209 0.672052 0.218204
405 23 2 -0.018412 0.195121 0.617762 0.241423
734 41 1 0.0629322 0.0228641 0.80046 0.19277
182 11 2 -0.0616365 0.484196 0.57564 0.199161
311 18 2 -0.0543881 0.379578 0.716893 0.214589
192 11 1 0.0622985 0.488818 0.573706 0.245733
726 41 2 -0.0616365 0.0122906 0.721628 0.248296
404 23 2 -0.0543881 0.196236 0.640471 0.188918
300 17 1 0.0622985 0.893589 0.93064 0.199961
737 41 1 0.0629322 0.987092 0.570028 0.212437
728 41 2 -0.0543881 0.994908 0.622538 0.20728
193 11 1 0.0629322 0.529681 0.664743 0.199467
144 8 1 0.0629322 0.653355 0.984146 0.220997
791 44 1 0.0629322 0.763903 0.710562 0.241761
790 44 1 0.0622985 0.723179 0.824303 0.2251
781 44 2 -0.0616365 0.695158 0.785867 0.247738
95 6 2 -0.0543881 0.404288 0.242914 0.270521
556 31 1 0.0622985 0.13053 0.362665 0.283081
239 14 2 -0.0543881 0.0917774 0.145308 0.294674
106 6 1 0.0622985 0.321321 0.108991 0.290124
96 6 2 -0.0616365 0.36132 0.19514 0.260578
837 47 2 -0.018412 0.297716 0.374498 0.287744
838 47 2 -0.0543881 0.264961 0.325672 0.26079
832 47 2 -0.018412 0.300258 0.436221 0.265623
97 6 2 -0.0616365 0.357626 0.145697 0.29709
846 47 1 0.0629322 0.263209 0.275762 0.273333
51 3 1 0.0622985 0.23287 0.0388327 0.275708
557 31 1 0.0629322 0.0393093 0.430136 0.311052
833 47 2 -0.0543881 0.332875 0.486507 0.290846
103 6 1 0.0629322 0.487747 0.335039 0.302461
354 20 1 0.0622985 0.621692 0.0855033 0.271237
241 14 2 -0.0616365 0.987131 0.109393 0.276994
355 20 1 0.0629322 0.516902 0.0528072 0.25457
137 8 1 0.0622985 0.738476 0.0458827 0.262541
749 42 1 0.0622985 0.938654 0.219396 0.287224
344 20 2 -0.0616365 0.593147 0.0679813 0.306371
739 42 2 -0.0616365 0.931974 0.270712 0.272312
345 20 2 -0.0543881 0.534127 0.0473265 0.295528
741 42 2 -0.0543881 0.880684 0.370932 0.281265
250 14 1 0.0622985 0.941764 0.0820038 0.291828
740 42 2 -0.0616365 0.889026 0.309611 0.296677
751 42 1 0.0629322 0.847507 0.399602 0.306922
399 23 2 -0.0543881 0.153157 0.544974 0.305884
400 23 2 -0.018412 0.157534 0.565191 0.252351
860 48 1 0.0629322 0.127706 0.781792 0.25115
406 23 2 -0.0543881 0.225948 0.649313 0.281276
853 48 2 -0.0616365 0.250195 0.866835 0.30316
852 48 2 -0.0616365 0.197482 0.831748 0.303712
414 23 1 0.0629322 0.249805 0.697545 0.270925
736 41 1 0.0622985 0.00632358 0.63328 0.295611
321 18 1 0.0622985 0.407103 0.714263 0.299181
313 18 2 -0.0616365 0.435541 0.79911 0.255897
727 41 2 -0.0616365 0.00522405 0.657901 0.253197
322 18 1 0.0622985 0.4569 0.823914 0.291618
851 48 2 -0.0543881 0.173736 0.812353 0.25614
312 18 2 -0.0616365 0.409212 0.739878 0.258297
842 47 1 0.0629322 0.333642 0.537681 0.271352
43 3 2 -0.0616365 0.139743 0.999371 0.254703
735 41 1 0.0622985 0.0183444 0.746588 0.28655
854 48 2 -0.0543881 0.282827 0.885026 0.259138
52 3 1 0.0622985 0.126486 0.99291 0.296373
863 48 1 0.0629322 0.322389 0.917363 0.259049
356 20 1 0.0629322 0.411107 0.99374 0.286667
789 44 1 0.0622985 0.608646 0.849616 0.251515
231 13 1 0.0622985 0.813515 0.878946 0.31181
788 44 1 0.0629322 0.551091 0.77812 0.312239
784 44 2 -0.0543881 0.699799 0.617228 0.295375
782 44 2 -0.0543881 0.716859 0.723289 0.255839
792 44 1 0.0629322 0.74614 0.597324 0.278165
783 44 2 -0.018412 0.679975 0.680265 0.284604
780 44 2 -0.0616365 0.632953 0.800777 0.26236
779 44 2 -0.0543881 0.597558 0.761423 0.293715
155 9 1 0.0622985 0.914586 0.59321 0.302372
778 44 2 -0.018412 0.620461 0.698717 0.306502
94 6 2 -0.018412 0.440681 0.242166 0.316831
99 6 2 -0.018412 0.43555 0.191635 0.35288
98 6 2 -0.0543881 0.394853 0.143639 0.342728
248 14 1 0.0629322 0.128242 0.155432 0.324136
249 14 1 0.0622985 0.0251971 0.118684 0.358182
546 31 2 -0.0616365 0.136022 0.313279 0.356661
346 20 2 -0.018412 0.498709 0.0168868 0.336777
548 31 2 -0.0543881 0.0583272 0.393285 0.339322
93 6 2 -0.0543881 0.480781 0.29161 0.329495
547 31 2 -0.0616365 0.108699 0.357543 0.322177
845 47 1 0.0629322 0.324918 0.311995 0.355202
836 47 2 -0.0543881 0.327571 0.36304 0.334452
555 31 1 0.0622985 0.176069 0.283589 0.344711
834 47 2 -0.0616365 0.356167 0.474503 0.340591
835 47 2 -0.0616365 0.351642 0.414297 0.362157
107 6 1 0.0629322 0.39066 0.105052 0.371642
240 14 2 -0.0616365 0.0350152 0.125454 0.31346
750 42 1 0.0622985 0.861346 0.291136 0.333459
343 20 2 -0.0616365 0.618563 0.064588 0.354554
353 20 1 0.0622985 0.665052 0.0880635 0.359647
69 4 1 0.0622985 0.704794 0.325766 0.338681
68 4 1 0.0629322 0.743439 0.210589 0.356934
409 23 1 0.0629322 0.121496 0.505902 0.318924
861 48 1 0.0622985 0.167187 0.824894 0.337634
862 48 1 0.0622985 0.269127 0.877088 0.344316
397 23 2 -0.0616365 0.219233 0.631359 0.333299
347 20 2 -0.0543881 0.441095 0.991422 0.327112
348 20 2 -0.0616365 0.410664 0.960338 0.366957
407 23 1 0.0622985 0.242267 0.659044 0.365264
163 10 2 -0.0616365 0.0077322 0.885761 0.352814
398 23 2 -0.0616365 0.185246 0.580521 0.346931
843 47 1 0.0622985 0.377722 0.515242 0.362755
173 10 1 0.0622985 0.0490711 0.883849 0.326137
357 20 1 0.0622985 0.363829 0.940657 0.359727
221 13 2 -0.0543881 0.790303 0.795141 0.352923
232 13 1 0.0622985 0.712999 0.940611 0.352498
162 9 1 0.0629322 0.84322 0.510953 0.323017
174 10 1 0.0622985 0.982313 0.978032 0.322705
164 10 2 -0.0616365 0.972011 0.939846 0.350156
785 44 1 0.0622985 0.679184 0.528093 0.338487
145 9 2 -0.0616365 0.901293 0.589829 0.345156
777 44 2 -0.0543881 0.581609 0.656949 0.335456
776 44 2 -0.0616365 0.603558 0.594922 0.345197
787 44 1 0.0629322 0.533781 0.674334 0.349082
786 44 1 0.0622985 0.574955 0.561952 0.370908
775 44 2 -0.0616365 0.663928 0.577792 0.325777
222 13 2 -0.0616365 0.778378 0.857673 0.338632
230 13 1 0.0629322 0.829364 0.772487 0.332911
154 9 2 -0.0543881 0.859317 0.541465 0.355378
223 13 2 -0.0616365 0.72434 0.888399 0.360435
545 31 2 -0.0543881 0.111686 0.307191 0.407812
100 6 2 -0.0543881 0.470509 0.19327 0.401194
544 31 2 -0.018412 0.0605271 0.342531 0.424972
844 47 1 0.0622985 0.371626 0.402054 0.401411
549 31 2 -0.018412 0.0340023 0.387388 0.388909
430 24 1 0.0622985 0.251249 0.207178 0.418964
108 6 1 0.0629322 0.469609 0.151928 0.427756
554 31 1 0.0629322 0.135707 0.271555 0.434817
152 9 2 -0.0543881 0.80812 0.479378 0.421341
70 4 1 0.0622985 0.648671 0.384004 0.411164
352 20 2 -0.0543881 0.587507 0.0368605 0.396528
686 39 2 -0.0616365 0.924215 0.158007 0.428759
351 20 2 -0.018412 0.527614 0.0121852 0.386345
696 39 1 0.0622985 0.920332 0.136917 0.388327
91 6 2 -0.0616365 0.509704 0.242317 0.413413
102 6 1 0.0622985 0.549121 0.328752 0.389574
695 39 1 0.0622985 0.854185 0.226881 0.411081
161 9 1 0.0629322 0.791279 0.443171 0.389771
92 6 2 -0.0616365 0.514991 0.289503 0.377624
60 4 2 -0.0616365 0.698423 0.30045 0.379222
550 31 2 -0.0543881 0.986619 0.427279 0.406166
61 4 2 -0.0616365 0.668195 0.333148 0.419205
558 31 1 0.0629322 0.964932 0.46319 0.378454
59 4 2 -0.0543881 0.718921 0.239266 0.388564
67 4 1 0.0629322 0.753999 0.119604 0.417471
408 23 1 0.0622985 0.179592 0.56518 0.389573
798 45 2 -0.0616365 0.382973 0.800987 0.435298
389 22 1 0.0622985 0.0972728 0.994969 0.42015
390 22 1 0.0622985 0.192384 0.921148 0.407289
180 10 1 0.0629322 0.021507 0.796618 0.384709
807 45 1 0.0622985 0.365906 0.851585 0.428132
350 20 2 -0.0543881 0.494066 0.983578 0.426909
808 45 1 0.0622985 0.481742 0.82572 0.432415
349 20 2 -0.0616365 0.438125 0.955884 0.417965
806 45 1 0.0629322 0.292226 0.757788 0.434771
172 10 2 -0.0543881 0.993581 0.838072 0.386523
175 10 1 0.0629322 0.888222 0.986354 0.380906
220 13 2 -0.018412 0.752513 0.765152 0.388674
218 13 2 -0.0616365 0.728223 0.666061 0.433009
146 9 2 -0.0616365 0.922102 0.629207 0.38435
153 9 2 -0.018412 0.843265 0.532532 0.409824
165 10 2 -0.0543881 0.919055 0.94658 0.384308
233 13 1 0.0629322 0.648358 0.880507 0.41754
171 10 2 -0.018412 0.941526 0.84128 0.420378
166 10 2 -0.018412 0.904962 0.89521 0.418169
219 13 2 -0.0543881 0.762207 0.702247 0.397459
225 13 2 -0.018412 0.703163 0.795036 0.414313
224 13 2 -0.0543881 0.689419 0.857152 0.398766
229 13 1 0.0629322 0.801985 0.68024 0.375551
147 9 2 -0.0543881 0.901552 0.62296 0.435295
156 9 1 0.0622985 0.953839 0.671543 0.377682
543 31 2 -0.0543881 0.0351032 0.337341 0.476064
269 15 1 0.0629322 0.19678 0.0297282 0.482221
420 24 2 -0.0616365 0.303032 0.274277 0.467992
422 24 2 -0.0543881 0.3223 0.16066 0.46844
342 19 1 0.0629322 0.218101 0.40501 0.494405
332 19 2 -0.0543881 0.125711 0.487934 0.483219
429 24 1 0.0622985 0.271636 0.313899 0.455763
421 24 2 -0.0616365 0.289422 0.214403 0.451692
431 24 1 0.0629322 0.309723 0.110537 0.453703
341 19 1 0.0629322 0.154535 0.480664 0.444491
268 15 1 0.0622985 0.123495 0.122849 0.459785
259 15 2 -0.0616365 0.156083 0.12298 0.496782
66 4 1 0.0622985 0.726117 0.068925 0.498891
101 6 1 0.0622985 0.542715 0.239167 0.449096
151 9 2 -0.0616365 0.784873 0.471966 0.472386
541 31 2 -0.0616365 0.961553 0.424013 0.458682
56 4 2 -0.0616365 0.711772 0.119998 0.492809
685 39 2 -0.0616365 0.884708 0.205261 0.443532
694 39 2 -0.0543881 0.885878 0.2248 0.495528
697 39 1 0.0629322 0.995788 0.09311 0.452463
57 4 2 -0.0543881 0.730596 0.150584 0.448856
687 39 2 -0.0543881 0.963597 0.131088 0.464972
58 4 2 -0.018412 0.709081 0.211479 0.437742
569 32 1 0.0622985 0.579076 0.476232 0.48552
542 31 2 -0.0616365 0.985161 0.376448 0.493046
551 31 1 0.0622985 0.925446 0.457074 0.474125
62 4 2 -0.0543881 0.659303 0.305417 0.468976
63 4 2 -0.018412 0.6769 0.244101 0.480147
160 9 1 0.0622985 0.755749 0.428875 0.478402
360 20 1 0.0629322 0.610446 0.0346925 0.437518
380 22 2 -0.0616365 0.157596 0.914544 0.438925
805 45 1 0.0629322 0.265873 0.653369 0.455171
340 19 1 0.0622985 0.0705265 0.56034 0.448585
804 45 1 0.0622985 0.309106 0.538899 0.46751
391 22 1 0.0629322 0.20035 0.828663 0.462774
358 20 1 0.0622985 0.414753 0.930483 0.453367
803 45 1 0.0622985 0.419402 0.520115 0.47508
802 45 2 -0.0543881 0.446621 0.614966 0.463692
796 45 2 -0.018412 0.362582 0.690749 0.453457
388 22 2 -0.0543881 0.0615107 0.944708 0.483781
810 45 1 0.0629322 0.497876 0.603631 0.465574
801 45 2 -0.018412 0.427049 0.678347 0.455533
379 22 2 -0.0616365 0.105378 0.954182 0.44592
795 45 2 -0.0543881 0.317803 0.64206 0.458961
797 45 2 -0.0543881 0.341894 0.750619 0.442436
381 22 2 -0.0543881 0.159325 0.86315 0.470846
396 22 1 0.0629322 0.022833 0.980163 0.487566
794 45 2 -0.0616365 0.339478 0.581206 0.463809
793 45 2 -0.0616365 0.402765 0.568058 0.469931
331 19 2 -0.0616365 0.0789128 0.534814 0.484136
800 45 2 -0.0543881 0.470102 0.727187 0.448597
799 45 2 -0.0616365 0.447779 0.787289 0.438981
148 9 2 -0.018412 0.859542 0.575615 0.449728
809 45 1 0.0629322 0.522642 0.723272 0.448341
169 10 2 -0.0616365 0.872643 0.794343 0.486966
168 10 2 -0.0616365 0.836998 0.846823 0.485547
157 9 1 0.0629322 0.917738 0.65799 0.466753
179 10 1 0.0629322 0.954009 0.743705 0.459083
359 20 1 0.0629322 0.520389 0.981059 0.464309
227 13 1 0.0622985 0.652566 0.675685 0.49731
167 10 2 -0.0543881 0.852585 0.89799 0.451788
226 13 2 -0.0543881 0.670232 0.761425 0.454196
234 13 1 0.0629322 0.63458 0.787459 0.477021
170 10 2 -0.0543881 0.926313 0.791811 0.455947
176 10 1 0.0629322 0.823705 0.943211 0.451731
217 13 2 -0.0616365 0.684314 0.698596 0.464301
228 13 1 0.0622985 0.738041 0.617029 0.437964
334 19 2 -0.0543881 0.193293 0.416443 0.532616
260 15 2 -0.0543881 0.193467 0.0722482 0.508392
432 24 1 0.0629322 0.398395 0.068106 0.509216
576 32 1 0.0629322 0.471135 0.42756 0.518508
428 24 1 0.0629322 0.364947 0.331994 0.518011
333 19 2 -0.018412 0.142859 0.456328 0.531268
424 24 2 -0.0543881 0.408543 0.120705 0.522553
553 31 1 0.0629322 0.0518038 0.299966 0.504895
423 24 2 -0.018412 0.372743 0.170673 0.502605
698 39 1 0.0629322 0.0435611 0.0851707 0.540409
267 15 1 0.0622985 0.121919 0.21712 0.523472
418 24 2 -0.018412 0.390198 0.230933 0.51568
417 24 2 -0.0543881 0.445596 0.242224 0.544496
261 15 2 -0.018412 0.224724 0.0730028 0.557964
258 15 2 -0.0616365 0.150995 0.173096 0.531025
689 39 2 -0.0543881 0.0102169 0.124974 0.553007
415 24 2 -0.0616365 0.46424 0.130048 0.550829
427 24 1 0.0629322 0.462737 0.290578 0.555685
419 24 2 -0.0543881 0.354179 0.281974 0.502564
416 24 2 -0.0616365 0.482262 0.190661 0.562464
568 32 2 -0.0543881 0.512571 0.431714 0.545917
702 39 1 0.0629322 0.848998 0.26219 0.507002
714 40 1 0.0622985 0.84389 0.361745 0.537876
552 31 1 0.0622985 0.967287 0.37355 0.534113
693 39 2 -0.018412 0.926694 0.199416 0.533535
559 32 2 -0.0616365 0.569573 0.459042 0.528029
64 4 2 -0.0543881 0.662358 0.211926 0.526415
15 1 1 0.0622985 0.816139 0.0459448 0.516774
72 4 1 0.0629322 0.6383 0.236694 0.561959
688 39 2 -0.018412 0.967611 0.152758 0.517894
71 4 1 0.0629322 0.639234 0.334475 0.503972
55 4 2 -0.0616365 0.680786 0.149201 0.533338
570 32 1 0.0622985 0.668511 0.485575 0.547296
560 32 2 -0.0616365 0.619461 0.466063 0.562161
6 1 2 -0.0616365 0.826768 0.0457664 0.559413
339 19 1 0.0622985 0.0064679 0.578555 0.530308
270 15 1 0.0629322 0.271823 0.982298 0.544757
383 22 2 -0.0543881 0.119348 0.796726 0.540569
330 19 2 -0.0616365 0.0450021 0.54532 0.53083
392 22 1 0.0629322 0.156838 0.763955 0.533958
382 22 2 -0.018412 0.113271 0.850962 0.509328
387 22 2 -0.018412 0.0662776 0.893856 0.518304
628 35 1 0.0622985 0.458684 0.87368 0.531218
386 22 2 -0.0543881 0.021731 0.883778 0.560491
619 35 2 -0.0616365 0.495967 0.900178 0.551706
149 9 2 -0.0543881 0.836867 0.568209 0.502253
620 35 2 -0.0543881 0.557329 0.881107 0.5436
177 10 1 0.0622985 0.793812 0.854151 0.511925
158 9 1 0.0629322 0.846744 0.606244 0.53246
178 10 1 0.0622985 0.854393 0.755624 0.512567
629 35 1 0.0629322 0.566564 0.839326 0.520986
150 9 2 -0.0616365 0.79776 0.515978 0.513042
16 1 1 0.0622985 0.870908 0.950294 0.562002
630 35 1 0.0629322 0.682273 0.845015 0.545169
159 9 1 0.0622985 0.773988 0.509491 0.554412
690 39 2 -0.0616365 0.0100523 0.145688 0.605384
256 15 2 -0.018412 0.219156 0.122878 0.594755
575 32 1 0.0629322 0.402188 0.394143 0.595176
425 24 1 0.0622985 0.494686 0.089983 0.566166
266 15 1 0.0629322 0.174513 0.213195 0.608
325 19 2 -0.0616365 0.212229 0.387803 0.579855
253 15 2 -0.0616365 0.292304 0.0225917 0.622065
328 19 2 -0.018412 0.110494 0.469209 0.577489
335 19 1 0.0622985 0.251624 0.354633 0.578667
566 32 2 -0.0543881 0.44675 0.396028 0.618332
262 15 2 -0.0543881 0.260581 0.0223491 0.57429
257 15 2 -0.0543881 0.183493 0.173347 0.579819
285 16 1 0.0622985 0.314974 0.492648 0.616285
65 4 1 0.0622985 0.663444 0.11819 0.572093
715 40 1 0.0629322 0.88885 0.448345 0.594722
567 32 2 -0.018412 0.505628 0.415915 0.598308
692 39 2 -0.0543881 0.927627 0.216831 0.586163
713 40 1 0.0622985 0.756647 0.295179 0.575963
561 32 2 -0.0543881 0.616034 0.443136 0.612283
701 39 1 0.0629322 0.896673 0.255885 0.600142
703 40 2 -0.0616365 0.774978 0.335692 0.599371
704 40 2 -0.0616365 0.824016 0.370573 0.578814
705 40 2 -0.0543881 0.850487 0.417761 0.610086
691 39 2 -0.0616365 0.969839 0.192443 0.621809
426 24 1 0.0622985 0.525324 0.197904 0.587561
5 1 2 -0.0543881 0.812135 0.0994425 0.592133
14 1 1 0.0629322 0.786727 0.138606 0.575915
280 16 2 -0.0543881 0.378646 0.732422 0.600427
384 22 2 -0.0616365 0.0796115 0.78883 0.583508
329 19 2 -0.0543881 0.0629642 0.514093 0.578017
272 16 2 -0.0616365 0.269505 0.762985 0.603636
274 16 2 -0.018412 0.297795 0.651363 0.611464
338 19 1 0.0629322 0.0426469 0.52243 0.616128
271 16 2 -0.0616365 0.332864 0.779045 0.598264
281 16 1 0.0622985 0.348763 0.83113 0.590726
275 16 2 -0.0543881 0.280166 0.589169 0.613779
282 16 1 0.0622985 0.232677 0.802107 0.602747
618 35 2 -0.0616365 0.482516 0.95039 0.584271
283 16 1 0.0629322 0.199597 0.689073 0.616979
273 16 2 -0.0543881 0.252467 0.699369 0.612386
279 16 2 -0.018412 0.361521 0.669649 0.605114
278 16 2 -0.0543881 0.406552 0.620707 0.601233
385 22 2 -0.0616365 0.0311822 0.830606 0.591271
627 35 1 0.0622985 0.433452 0.963907 0.591121
393 22 1 0.0622985 0.0808748 0.745887 0.608355
288 16 1 0.0629322 0.430786 0.74735 0.596497
287 16 1 0.0629322 0.459985 0.632403 0.594295
277 16 2 -0.0616365 0.390824 0.558422 0.607487
286 16 1 0.0622985 0.426469 0.517647 0.610856
284 16 1 0.0629322 0.23001 0.572553 0.61543
276 16 2 -0.0616365 0.326905 0.543204 0.612764
623 35 1 0.0622985 0.762065 0.902173 0.593398
479 27 1 0.0622985 0.624212 0.715113 0.580455
395 22 1 0.0629322 0.982457 0.916447 0.568952
616 35 2 -0.018412 0.592766 0.960262 0.605344
622 35 2 -0.0543881 0.667671 0.888017 0.568049
7 1 2 -0.0616365 0.855508 0.995182 0.583687
613 35 2 -0.0616365 0.714864 0.922152 0.592982
621 35 2 -0.018412 0.606519 0.910043 0.571679
480 27 1 0.0622985 0.695584 0.625902 0.593988
617 35 2 -0.0543881 0.53092 0.980319 0.611681
821 46 1 0.0622985 0.865438 0.735496 0.604851
828 46 1 0.0629322 0.764158 0.787433 0.621754
469 27 2 -0.0616365 0.623017 0.687302 0.618954
394 22 1 0.0622985 0.99783 0.825105 0.624526
699 39 1 0.0622985 0.0458722 0.124411 0.63353
327 19 2 -0.0543881 0.131296 0.442268 0.625177
565 32 2 -0.0616365 0.440502 0.387664 0.671509
337 19 1 0.0629322 0.103258 0.449481 0.663546
265 15 1 0.0629322 0.239438 0.160085 0.678234
574 32 1 0.0622985 0.391349 0.372175 0.683886
35 2 1 0.0629322 0.489429 0.14431 0.67006
34 2 1 0.0622985 0.379114 0.182298 0.671511
255 15 2 -0.0543881 0.246641 0.122786 0.645101
326 19 2 -0.0616365 0.182438 0.401125 0.627813
895 50 1 0.0629322 0.109406 0.0231417 0.666183
875 49 1 0.0622985 0.00549025 0.356268 0.675785
336 19 1 0.0622985 0.198214 0.379764 0.664982
254 15 2 -0.0616365 0.283732 0.070206 0.659152
712 40 2 -0.0543881 0.752264 0.346821 0.651206
3 1 2 -0.0543881 0.811263 0.155494 0.675939
562 32 2 -0.018412 0.556895 0.423034 0.630744
700 39 1 0.0622985 0.967107 0.208747 0.663507
8 1 2 -0.0543881 0.875936 0.00168362 0.638133
711 40 2 -0.018412 0.77435 0.394877 0.681985
625 35 1 0.0629322 0.631853 0.0352465 0.65763
720 40 1 0.0629322 0.713976 0.316062 0.669875
624 35 1 0.0622985 0.740645 0.001462 0.647709
626 35 1 0.0629322 0.518828 0.0223499 0.637713
571 32 1 0.0629322 0.658406 0.444232 0.640889
4 1 2 -0.018412 0.829168 0.103261 0.646516
9 1 2 -0.018412 0.86474 0.0535695 0.66941
706 40 2 -0.018412 0.82523 0.431615 0.660755
13 1 1 0.0629322 0.787372 0.195704 0.656942
876 49 1 0.0622985 0.89386 0.302077 0.682628
563 32 2 -0.0543881 0.549915 0.411483 0.684507
263 15 1 0.0622985 0.31967 0.979386 0.633872
884 50 2 -0.0616365 0.11806 0.923765 0.666405
894 50 1 0.0622985 0.140293 0.92384 0.627469
516 29 1 0.0622985 0.0882659 0.621917 0.671831
893 50 1 0.0622985 0.137925 0.824143 0.675023
659 37 1 0.0622985 0.466753 0.839346 0.67889
820 46 2 -0.0543881 0.790929 0.76621 0.655962
614 35 2 -0.0616365 0.701895 0.973377 0.625862
471 27 2 -0.0543881 0.670136 0.60981 0.680179
17 1 1 0.0629322 0.900648 0.961144 0.656178
811 46 2 -0.0616365 0.843398 0.728424 0.645659
615 35 2 -0.0543881 0.641344 0.992861 0.631805
486 27 1 0.0629322 0.556713 0.746024 0.656331
470 27 2 -0.0616365 0.665918 0.639754 0.629173
478 27 2 -0.0543881 0.586161 0.704928 0.660997
716 40 1 0.0629322 0.881101 0.517879 0.674034
822 46 1 0.0622985 0.913229 0.666005 0.68261
827 46 1 0.0629322 0.684233 0.822747 0.685674
812 46 2 -0.0616365 0.86943 0.696037 0.686759
264 15 1 0.0622985 0.304531 0.0684586 0.697855
677 38 1 0.0622985 0.204977 0.251473 0.730257
24 2 2 -0.0616365 0.38982 0.242734 0.741179
26 2 2 -0.0543881 0.471909 0.178366 0.702288
564 32 2 -0.0616365 0.493329 0.39249 0.703649
684 38 1 0.0629322 0.0987053 0.192753 0.725791
896 50 1 0.0629322 0.0621289 0.0749279 0.739755
33 2 1 0.0622985 0.339552 0.262094 0.73827
25 2 2 -0.0616365 0.410065 0.198317 0.703746
573 32 1 0.0622985 0.489191 0.38036 0.746644
882 49 1 0.0629322 0.0429109 0.417412 0.743553
2 1 2 -0.0616365 0.827917 0.160564 0.728947
865 49 2 -0.0616365 0.975941 0.357044 0.712959
10 1 2 -0.0543881 0.879708 0.0594723 0.725266
27 2 2 -0.018412 0.514207 0.200806 0.740281
18 1 1 0.0629322 0.902798 0.0209216 0.749418
710 40 2 -0.0543881 0.752982 0.402354 0.734114
572 32 1 0.0629322 0.592104 0.424392 0.714914
28 2 2 -0.0543881 0.577061 0.180438 0.740988