ITEM: TIMESTEP
0
ITEM: NUMBER OF ATOMS
900
ITEM: BOX BOUNDS pp pp pp
7.2048547580331501e-01 2.1269107524196713e+01
7.2048547580331501e-01 2.1269107524196713e+01
1.0873363943320696e+03 1.1116228976679304e+03
ITEM: ATOMS id mol type q xs ys zs
437 25 2 -0.0543881 0.456186 0.101233 0.0537405
840 47 1 0.0622985 0.276254 0.445106 0.0084081
839 47 1 0.0622985 0.332356 0.353494 0.0115981
438 25 2 -0.0616365 0.467376 0.0432142 0.0318444
829 47 2 -0.0616365 0.325796 0.37644 0.0495704
647 36 1 0.0629322 0.487599 0.387197 0.0084401
412 23 1 0.0622985 0.127108 0.376487 0.023961
303 17 1 0.0622985 0.00155904 0.119793 0.0552056
37 3 2 -0.0616365 0.205091 0.0299448 0.0378794
413 23 1 0.0629322 0.122399 0.49505 0.041903
447 25 1 0.0622985 0.434861 0.00231289 0.0377352
48 3 1 0.0622985 0.253835 0.117188 0.0577302
830 47 2 -0.0616365 0.292647 0.431829 0.0489835
139 8 1 0.0629322 0.89475 0.220053 0.0502146
441 25 2 -0.018412 0.555779 0.138733 0.0189433
433 25 2 -0.0616365 0.586084 0.243489 0.0342658
140 8 1 0.0629322 0.849353 0.131728 0.000380015
443 25 1 0.0622985 0.617383 0.281551 0.0229003
442 25 2 -0.0543881 0.598402 0.185367 0.0106572
132 8 2 -0.0616365 0.803251 0.0497056 0.0386757
637 36 2 -0.0616365 0.577051 0.429712 0.0324111
294 17 2 -0.0616365 0.992811 0.0695863 0.0424529
636 36 2 -0.0616365 0.627944 0.463109 0.0161902
436 25 2 -0.018412 0.500137 0.150119 0.0472274
131 8 2 -0.0543881 0.832558 0.10957 0.0398696
496 28 2 -0.0543881 0.827216 0.430131 0.0201114
645 36 1 0.0622985 0.665511 0.48001 0.04428
504 28 1 0.0629322 0.827923 0.380886 0.00243338
439 25 2 -0.0616365 0.521167 0.0314788 0.00543484
723 41 2 -0.0543881 0.0623009 0.750922 0.056874
314 18 2 -0.0543881 0.420886 0.719718 0.00293863
310 18 2 -0.018412 0.455854 0.813864 0.0482654
722 41 2 -0.0616365 0.0900283 0.758412 0.0067389
864 48 1 0.0629322 0.30607 0.904961 0.0206882
46 3 2 -0.0543881 0.169754 0.979498 0.0550746
856 48 2 -0.0543881 0.290388 0.853626 0.0134655
54 3 1 0.0629322 0.148137 0.947491 0.0238776
728 41 2 -0.0543881 0.00324532 0.588173 0.0573555
850 48 2 -0.018412 0.242891 0.752079 0.0334494
315 18 2 -0.018412 0.427748 0.752808 0.0501088
855 48 2 -0.018412 0.260428 0.813774 0.048592
729 41 2 -0.018412 0.0307345 0.644273 0.0403676
198 11 1 0.0629322 0.431093 0.521852 0.0605754
320 18 1 0.0629322 0.498303 0.884819 0.00163256
311 18 2 -0.0543881 0.475279 0.837947 0.000761187
500 28 1 0.0629322 0.884374 0.639312 0.023128
289 17 2 -0.0616365 0.940581 0.83647 0.0498415
490 28 2 -0.018412 0.855508 0.541686 0.0256797
737 41 1 0.0629322 0.997983 0.546498 0.0301394
299 17 1 0.0622985 0.932141 0.784811 0.0438932
792 44 1 0.0629322 0.784985 0.780073 0.056726
791 44 1 0.0629322 0.696301 0.853819 0.048849
298 17 2 -0.0543881 0.970995 0.874419 0.0115634
184 11 2 -0.018412 0.544245 0.632582 0.0408952
189 11 2 -0.018412 0.5008 0.585694 0.0283332
297 17 2 -0.018412 0.979044 0.939333 0.0223602
194 11 1 0.0629322 0.606939 0.702318 0.0100309
491 28 2 -0.0543881 0.882223 0.592241 0.00188188
445 25 1 0.0629322 0.449602 0.214466 0.100569
446 25 1 0.0629322 0.411937 0.111218 0.0784082
831 47 2 -0.0543881 0.292316 0.469251 0.0935061
38 3 2 -0.0616365 0.227818 0.0745972 0.0742174
404 23 2 -0.0543881 0.136327 0.462676 0.0754933
435 25 2 -0.0543881 0.491732 0.206698 0.0731321
402 23 2 -0.0616365 0.1537 0.354492 0.107033
838 47 2 -0.0543881 0.352099 0.35294 0.0964852
403 23 2 -0.0616365 0.13833 0.398556 0.0669557
411 23 1 0.0622985 0.159586 0.302044 0.101123
846 47 1 0.0629322 0.376446 0.303607 0.0948275
488 28 2 -0.0616365 0.811835 0.492223 0.101168
434 25 2 -0.0616365 0.532428 0.254691 0.0644882
444 25 1 0.0622985 0.527882 0.304505 0.0857682
646 36 1 0.0622985 0.570791 0.414207 0.0767181
293 17 2 -0.0543881 0.960404 0.0298717 0.0779529
302 17 1 0.0629322 0.941203 0.0525527 0.117563
487 28 2 -0.0616365 0.805742 0.4343 0.072553
497 28 1 0.0622985 0.788666 0.392173 0.0922298
129 8 2 -0.0543881 0.880779 0.197884 0.0875785
133 8 2 -0.0616365 0.781784 0.0237393 0.0863786
130 8 2 -0.018412 0.848797 0.138762 0.0868221
724 41 2 -0.018412 0.0328085 0.696739 0.0746484
309 18 2 -0.0543881 0.457466 0.848268 0.0946636
733 41 1 0.0629322 0.0703395 0.789223 0.0853603
851 48 2 -0.0543881 0.211781 0.712926 0.0722415
324 18 1 0.0629322 0.382406 0.681702 0.0978578
852 48 2 -0.0616365 0.206024 0.73522 0.124661
316 18 2 -0.0543881 0.406282 0.727122 0.0965258
863 48 1 0.0629322 0.260846 0.8838 0.106664
45 3 2 -0.018412 0.15973 0.971552 0.109174
53 3 1 0.0629322 0.100876 0.890441 0.0938656
841 47 1 0.0629322 0.267566 0.516344 0.0903771
319 18 1 0.0629322 0.480815 0.895548 0.0959556
414 23 1 0.0629322 0.12304 0.583046 0.108453
190 11 2 -0.0543881 0.469216 0.556039 0.0693623
854 48 2 -0.0543881 0.247547 0.834649 0.0997827
181 11 2 -0.0616365 0.484135 0.571369 0.122688
860 48 1 0.0629322 0.204423 0.659171 0.0653049
499 28 1 0.0629322 0.84569 0.586466 0.106472
736 41 1 0.0622985 0.950715 0.541113 0.118164
783 44 2 -0.018412 0.711398 0.789437 0.116227
790 44 1 0.0622985 0.598806 0.896632 0.0933902
727 41 2 -0.0616365 0.975048 0.58582 0.1071
489 28 2 -0.0543881 0.837274 0.546867 0.0790588
292 17 2 -0.018412 0.954227 0.965351 0.0680615
785 44 1 0.0622985 0.841301 0.697103 0.111988
291 17 2 -0.0543881 0.926458 0.929031 0.106459
193 11 1 0.0629322 0.594836 0.684733 0.101768
183 11 2 -0.0543881 0.558076 0.648138 0.0941967
290 17 2 -0.0616365 0.915994 0.864412 0.0948997
784 44 2 -0.0543881 0.765053 0.763098 0.0949345
781 44 2 -0.0616365 0.62527 0.859204 0.11174
142 8 1 0.0622985 0.754534 0.977747 0.0885499
782 44 2 -0.0543881 0.680137 0.838687 0.0897222
775 44 2 -0.0616365 0.796398 0.715895 0.124189
300 17 1 0.0622985 0.890873 0.833773 0.123618
252 14 1 0.0629322 0.0512659 0.0673352 0.174123
405 23 2 -0.018412 0.14482 0.483505 0.127695
49 3 1 0.0629322 0.235927 0.0983314 0.155247
832 47 2 -0.018412 0.317456 0.445234 0.140355
837 47 2 -0.018412 0.34713 0.386828 0.142966
356 20 1 0.0629322 0.431704 0.0159409 0.13042
400 23 2 -0.018412 0.161558 0.441501 0.167844
40 3 2 -0.018412 0.18342 0.0148474 0.146053
401 23 2 -0.0543881 0.166514 0.376624 0.156835
245 14 1 0.0622985 0.128596 0.161275 0.18134
410 23 1 0.0629322 0.179346 0.338621 0.187365
833 47 2 -0.0543881 0.314089 0.485563 0.184358
39 3 2 -0.0543881 0.220238 0.0626976 0.128239
608 34 1 0.0629322 0.702708 0.433518 0.171786
138 8 1 0.0622985 0.927147 0.267189 0.142088
134 8 2 -0.0543881 0.794426 0.0525238 0.135
498 28 1 0.0622985 0.796791 0.494077 0.144578
753 42 1 0.0622985 0.949905 0.415535 0.159061
128 8 2 -0.0616365 0.896523 0.223997 0.135675
135 8 2 -0.018412 0.827665 0.110804 0.134791
127 8 2 -0.0616365 0.879707 0.195918 0.183982
599 34 2 -0.0543881 0.656735 0.40834 0.177987
355 20 1 0.0629322 0.540077 0.0301405 0.153231
606 34 1 0.0622985 0.739101 0.212168 0.145902
143 8 1 0.0629322 0.777761 0.0305771 0.173953
596 34 2 -0.0616365 0.695568 0.240869 0.155523
607 34 1 0.0629322 0.747826 0.32846 0.151356
597 34 2 -0.0543881 0.700588 0.306187 0.158023
136 8 2 -0.0543881 0.843448 0.140748 0.180185
598 34 2 -0.018412 0.649488 0.343938 0.174703
595 34 2 -0.0616365 0.63834 0.213424 0.168794
605 34 1 0.0622985 0.639117 0.159627 0.167802
604 34 2 -0.0543881 0.585406 0.251625 0.182746
603 34 2 -0.018412 0.590149 0.316624 0.18578
307 18 2 -0.0616365 0.41039 0.76107 0.14309
734 41 1 0.0629322 0.00648479 0.737325 0.151912
318 18 1 0.0622985 0.436539 0.850709 0.177624
406 23 2 -0.0543881 0.133711 0.545961 0.139013
44 3 2 -0.0543881 0.119753 0.923285 0.125881
853 48 2 -0.0616365 0.222484 0.798014 0.13781
861 48 1 0.0622985 0.183009 0.700258 0.15509
43 3 2 -0.0616365 0.100279 0.923296 0.180003
191 11 1 0.0622985 0.463539 0.545041 0.154198
308 18 2 -0.0616365 0.433728 0.821663 0.141221
862 48 1 0.0622985 0.214416 0.814092 0.180718
357 20 1 0.0622985 0.323381 0.981611 0.155552
842 47 1 0.0629322 0.290841 0.530982 0.178509
347 20 2 -0.0543881 0.420057 0.996378 0.16986
348 20 2 -0.0616365 0.360723 0.974935 0.184292
317 18 1 0.0622985 0.396493 0.742298 0.181354
725 41 2 -0.0543881 0.00566119 0.692957 0.125327
182 11 2 -0.0616365 0.529018 0.617036 0.133228
301 17 1 0.0629322 0.907438 0.948468 0.143862
789 44 1 0.0622985 0.558707 0.858702 0.177273
780 44 2 -0.0616365 0.602401 0.838657 0.159999
726 41 2 -0.0616365 0.976402 0.637275 0.141099
776 44 2 -0.0616365 0.773776 0.696557 0.171337
192 11 1 0.0622985 0.539769 0.628853 0.174829
778 44 2 -0.018412 0.686912 0.765646 0.164398
735 41 1 0.0622985 0.949316 0.633518 0.1794
779 44 2 -0.0543881 0.631866 0.788092 0.185311
243 14 2 -0.018412 0.000200671 0.0912192 0.245648
244 14 2 -0.0543881 0.0470633 0.100378 0.207408
235 14 2 -0.0616365 0.0875224 0.153488 0.209039
50 3 1 0.0629322 0.189182 0.0483707 0.231117
611 34 1 0.0629322 0.491778 0.330865 0.210244
836 47 2 -0.0543881 0.368853 0.364896 0.194037
845 47 1 0.0629322 0.394175 0.316862 0.195463
421 24 2 -0.0616365 0.354857 0.150112 0.231567
754 42 1 0.0622985 0.0434219 0.366761 0.207468
399 23 2 -0.0543881 0.168721 0.459789 0.219846
420 24 2 -0.0616365 0.321955 0.20651 0.227565
41 3 2 -0.0543881 0.17039 0.0109668 0.199688
834 47 2 -0.0616365 0.327276 0.461693 0.235116
430 24 1 0.0622985 0.372461 0.120231 0.196212
835 47 2 -0.0616365 0.352602 0.402511 0.239907
429 24 1 0.0622985 0.302576 0.219285 0.188333
236 14 2 -0.0616365 0.0798622 0.198723 0.248225
246 14 1 0.0622985 0.110783 0.242631 0.249556
602 34 2 -0.0543881 0.538727 0.352311 0.199412
345 20 2 -0.0543881 0.530578 0.00236303 0.190793
612 34 1 0.0629322 0.539793 0.229062 0.18772
744 42 2 -0.0616365 0.946783 0.402644 0.203374
610 34 1 0.0622985 0.504952 0.444655 0.209605
354 20 1 0.0622985 0.630205 0.00572387 0.210461
242 14 2 -0.0543881 0.962983 0.0358423 0.243774
600 34 2 -0.0616365 0.60385 0.444525 0.190395
752 42 1 0.0629322 0.845497 0.436045 0.210116
137 8 1 0.0622985 0.895893 0.221305 0.22085
601 34 2 -0.0616365 0.544219 0.416041 0.199126
745 42 2 -0.0616365 0.999883 0.375217 0.230474
743 42 2 -0.0543881 0.890902 0.414303 0.230504
144 8 1 0.0629322 0.825197 0.123252 0.218169
609 34 1 0.0622985 0.609018 0.496243 0.191471
52 3 1 0.0622985 0.0676006 0.884717 0.192459
349 20 2 -0.0616365 0.348879 0.949496 0.233469
346 20 2 -0.018412 0.470561 0.98921 0.20568
407 23 1 0.0622985 0.12575 0.613383 0.206926
393 22 1 0.0622985 0.0125043 0.673574 0.249124
804 45 1 0.0622985 0.26843 0.605925 0.246487
803 45 1 0.0622985 0.380966 0.617236 0.239314
397 23 2 -0.0616365 0.13873 0.56388 0.194242
42 3 2 -0.0616365 0.127442 0.964959 0.215975
398 23 2 -0.0616365 0.151339 0.519778 0.232988
358 20 1 0.0622985 0.298569 0.942675 0.244466
251 14 1 0.0629322 0.967237 0.999498 0.209961
786 44 1 0.0622985 0.799204 0.660813 0.195648
788 44 1 0.0629322 0.611074 0.772115 0.222738
162 9 1 0.0629322 0.757883 0.555998 0.248978
344 20 2 -0.0616365 0.580648 0.994626 0.226315
231 13 1 0.0622985 0.887659 0.866733 0.221595
155 9 1 0.0622985 0.870279 0.571303 0.211618
232 13 1 0.0622985 0.793877 0.930993 0.205449
777 44 2 -0.0543881 0.719253 0.719867 0.193978
223 13 2 -0.0616365 0.791261 0.893365 0.238349
787 44 1 0.0629322 0.704187 0.702817 0.234776
392 22 1 0.0629322 0.996106 0.797002 0.23398
222 13 2 -0.0616365 0.843129 0.854417 0.247312
237 14 2 -0.0543881 0.0308658 0.189513 0.283496
843 47 1 0.0622985 0.312019 0.498194 0.26604
409 23 1 0.0629322 0.187805 0.425816 0.252138
755 42 1 0.0629322 0.0328635 0.335513 0.3077
844 47 1 0.0622985 0.363352 0.383282 0.280483
428 24 1 0.0629322 0.280387 0.285128 0.272842
431 24 1 0.0629322 0.401856 0.0852693 0.283099
419 24 2 -0.0543881 0.308065 0.241495 0.274066
422 24 2 -0.0543881 0.375354 0.128822 0.281719
238 14 2 -0.018412 0.99067 0.137823 0.282498
107 6 1 0.0629322 0.516532 0.208201 0.287845
69 4 1 0.0622985 0.702127 0.235473 0.289328
241 14 2 -0.0616365 0.911445 0.0278768 0.279116
746 42 2 -0.0543881 0.990769 0.36074 0.284583
742 42 2 -0.018412 0.885396 0.400947 0.285253
70 4 1 0.0622985 0.636724 0.331353 0.285139
108 6 1 0.0629322 0.579092 0.106601 0.300526
751 42 1 0.0629322 0.788687 0.438393 0.291982
741 42 2 -0.0543881 0.827111 0.412554 0.312108
747 42 2 -0.018412 0.935552 0.369063 0.311633
408 23 1 0.0622985 0.155617 0.538162 0.275051
794 45 2 -0.0616365 0.292764 0.642123 0.271184
51 3 1 0.0622985 0.106608 0.961494 0.257562
381 22 2 -0.0543881 0.0159453 0.882912 0.304549
810 45 1 0.0629322 0.441179 0.700079 0.301042
793 45 2 -0.0616365 0.3574 0.649149 0.266655
384 22 2 -0.0616365 0.0206414 0.710673 0.278606
383 22 2 -0.0543881 0.0129771 0.775006 0.271468
802 45 2 -0.0543881 0.386975 0.695229 0.29753
795 45 2 -0.0543881 0.258718 0.68111 0.301795
351 20 2 -0.018412 0.458627 0.959428 0.254967
569 32 1 0.0622985 0.495656 0.595769 0.296158
350 20 2 -0.0543881 0.399147 0.937297 0.268462
805 45 1 0.0629322 0.205052 0.675304 0.305989
359 20 1 0.0629322 0.390915 0.912379 0.306425
353 20 1 0.0622985 0.609251 0.954879 0.301435
250 14 1 0.0622985 0.880128 0.986264 0.273726
352 20 2 -0.0543881 0.509744 0.951225 0.291081
220 13 2 -0.018412 0.782466 0.791673 0.309643
145 9 2 -0.0616365 0.856829 0.573941 0.255586
391 22 1 0.0629322 0.997161 0.899399 0.265408
156 9 1 0.0622985 0.955089 0.589578 0.272752
154 9 2 -0.0543881 0.797413 0.563146 0.274935
146 9 2 -0.0616365 0.90543 0.583601 0.289487
233 13 1 0.0629322 0.696012 0.914527 0.261647
230 13 1 0.0629322 0.883992 0.779959 0.289338
224 13 2 -0.0543881 0.735738 0.881606 0.264721
221 13 2 -0.0543881 0.839313 0.807394 0.282708
225 13 2 -0.018412 0.729091 0.828945 0.299853
343 20 2 -0.0616365 0.569964 0.9681 0.276884
247 14 1 0.0629322 0.0240935 0.21965 0.318117
97 6 2 -0.0616365 0.490511 0.266756 0.354894
547 31 2 -0.0616365 0.153513 0.339293 0.361195
557 31 1 0.0629322 0.134545 0.428182 0.328172
548 31 2 -0.0543881 0.120361 0.395636 0.361795
106 6 1 0.0622985 0.464916 0.303645 0.327245
558 31 1 0.0629322 0.0549307 0.495474 0.366975
418 24 2 -0.018412 0.32503 0.217681 0.323719
556 31 1 0.0622985 0.19126 0.330678 0.330539
423 24 2 -0.018412 0.359859 0.16149 0.327615
259 15 2 -0.0616365 0.1746 0.0203041 0.36821
267 15 1 0.0622985 0.116986 0.099616 0.348948
427 24 1 0.0629322 0.2808 0.292748 0.373081
417 24 2 -0.0543881 0.307008 0.248213 0.371465
98 6 2 -0.0543881 0.51854 0.213207 0.331914
60 4 2 -0.0616365 0.69375 0.260551 0.328363
249 14 1 0.0622985 0.867322 0.0662561 0.34719
748 42 2 -0.0543881 0.926999 0.350468 0.363113
100 6 2 -0.0543881 0.581202 0.118137 0.344926
71 4 1 0.0629322 0.605617 0.386553 0.368634
239 14 2 -0.0543881 0.938832 0.129393 0.318438
62 4 2 -0.0543881 0.636296 0.344354 0.372715
61 4 2 -0.0616365 0.653712 0.313296 0.326262
240 14 2 -0.0616365 0.90268 0.0748865 0.317206
99 6 2 -0.018412 0.549993 0.171357 0.365547
740 42 2 -0.0616365 0.819765 0.392137 0.3627
248 14 1 0.0629322 0.932115 0.166008 0.352986
101 6 1 0.0622985 0.635934 0.0343712 0.363905
806 45 1 0.0629322 0.197806 0.764876 0.363455
390 22 1 0.0622985 0.0354235 0.978824 0.338078
576 32 1 0.0629322 0.448863 0.502151 0.334511
380 22 2 -0.0616365 0.0363362 0.925779 0.34454
386 22 2 -0.0543881 0.0575305 0.730414 0.369225
797 45 2 -0.0543881 0.250783 0.771319 0.363968
568 32 2 -0.0543881 0.48247 0.528524 0.361103
385 22 2 -0.0616365 0.041453 0.689989 0.327417
801 45 2 -0.018412 0.352058 0.737563 0.328539
394 22 1 0.0622985 0.0460347 0.63788 0.333743
796 45 2 -0.018412 0.285734 0.731293 0.330633
800 45 2 -0.0543881 0.383318 0.784846 0.359787
268 15 1 0.0622985 0.152803 0.991467 0.334521
387 22 2 -0.018412 0.0516324 0.795864 0.361603
809 45 1 0.0629322 0.436139 0.790199 0.362381
382 22 2 -0.018412 0.0251117 0.818443 0.313794
234 13 1 0.0629322 0.633515 0.846803 0.31767
560 32 2 -0.0616365 0.553462 0.618052 0.367405
360 20 1 0.0629322 0.504997 0.924655 0.328008
161 9 1 0.0629322 0.68602 0.536749 0.324286
229 13 1 0.0629322 0.822057 0.710173 0.352755
559 32 2 -0.0616365 0.509035 0.583622 0.339031
147 9 2 -0.0543881 0.895882 0.585911 0.343287
219 13 2 -0.0543881 0.778536 0.740077 0.344119
180 10 1 0.0629322 0.868473 0.919139 0.368729
570 32 1 0.0622985 0.577159 0.660622 0.347907
152 9 2 -0.0543881 0.730405 0.544037 0.350748
153 9 2 -0.018412 0.787021 0.560856 0.32969
226 13 2 -0.0543881 0.673688 0.815303 0.324545
148 9 2 -0.018412 0.836438 0.57182 0.36527
217 13 2 -0.0616365 0.66858 0.762025 0.356806
218 13 2 -0.0616365 0.720582 0.724505 0.368241
173 10 1 0.0622985 0.770277 0.974197 0.357531
157 9 1 0.0629322 0.933231 0.592288 0.373352
105 6 1 0.0622985 0.46471 0.31942 0.427686
549 31 2 -0.018412 0.074226 0.405068 0.401462
575 32 1 0.0629322 0.432646 0.424656 0.41119
555 31 1 0.0622985 0.176015 0.25186 0.399347
415 24 2 -0.0616365 0.364741 0.172595 0.42373
546 31 2 -0.0616365 0.144957 0.294458 0.399559
258 15 2 -0.0616365 0.151073 0.0783915 0.377158
96 6 2 -0.0616365 0.486482 0.276851 0.40874
550 31 2 -0.0543881 0.0419091 0.460749 0.398537
416 24 2 -0.0616365 0.326158 0.224708 0.421617
341 19 1 0.0629322 0.291832 0.476574 0.401732
424 24 2 -0.0543881 0.380152 0.139323 0.377762
332 19 2 -0.0543881 0.248284 0.480569 0.427486
432 24 1 0.0629322 0.403268 0.0940363 0.381683
257 15 2 -0.0543881 0.173819 0.111484 0.420682
266 15 1 0.0629322 0.158246 0.159364 0.431138
566 32 2 -0.0543881 0.467634 0.454192 0.434921
756 42 1 0.0629322 0.962977 0.31874 0.387495
63 4 2 -0.018412 0.65518 0.320193 0.420286
58 4 2 -0.018412 0.692656 0.266581 0.422143
94 6 2 -0.018412 0.553001 0.183532 0.420389
59 4 2 -0.0543881 0.714522 0.235084 0.375429
739 42 2 -0.0616365 0.870403 0.361561 0.388403
750 42 1 0.0622985 0.772828 0.399717 0.385989
68 4 1 0.0629322 0.744211 0.189753 0.375209
91 6 2 -0.0616365 0.614162 0.0778444 0.378461
749 42 1 0.0622985 0.866448 0.344533 0.428943
541 31 2 -0.0616365 0.994416 0.471478 0.433932
92 6 2 -0.0616365 0.613599 0.0913436 0.433166
695 39 1 0.0622985 0.849595 0.107917 0.434553
260 15 2 -0.0543881 0.214553 0.99553 0.403777
389 22 1 0.0622985 0.0794598 0.937703 0.425935
269 15 1 0.0629322 0.23323 0.949605 0.394129
798 45 2 -0.0616365 0.282031 0.815294 0.396016
799 45 2 -0.0616365 0.344983 0.822881 0.390094
807 45 1 0.0622985 0.256073 0.848077 0.42328
388 22 2 -0.0543881 0.0684799 0.839389 0.40123
628 35 1 0.0622985 0.482829 0.878645 0.425359
627 35 1 0.0622985 0.449934 0.9884 0.41521
808 45 1 0.0622985 0.376984 0.856121 0.412968
379 22 2 -0.0616365 0.0638915 0.904209 0.393572
395 22 1 0.0629322 0.0732817 0.712003 0.410009
567 32 2 -0.018412 0.495028 0.506537 0.41092
331 19 2 -0.0616365 0.206204 0.526709 0.41691
283 16 1 0.0629322 0.284837 0.633948 0.432451
340 19 1 0.0622985 0.211869 0.556869 0.385324
227 13 1 0.0622985 0.625124 0.753326 0.381956
151 9 2 -0.0616365 0.723741 0.531812 0.404361
174 10 1 0.0622985 0.678636 0.946552 0.414699
163 10 2 -0.0616365 0.772129 0.934092 0.388484
164 10 2 -0.0616365 0.720476 0.918642 0.420661
179 10 1 0.0629322 0.933295 0.834747 0.411894
561 32 2 -0.0543881 0.568511 0.595124 0.418264
172 10 2 -0.0543881 0.827138 0.902016 0.393925
149 9 2 -0.0543881 0.828166 0.56637 0.419951
228 13 1 0.0622985 0.717159 0.686172 0.397581
160 9 1 0.0622985 0.67776 0.509389 0.419926
170 10 2 -0.0543881 0.891384 0.818893 0.43601
171 10 2 -0.018412 0.834456 0.853876 0.431349
551 31 1 0.0622985 0.966773 0.515914 0.426027
626 35 1 0.0629322 0.487703 0.0653318 0.483441
261 15 2 -0.018412 0.235672 0.0262374 0.446817
565 32 2 -0.0616365 0.479193 0.438545 0.487292
554 31 1 0.0629322 0.0905886 0.266903 0.469755
426 24 1 0.0622985 0.31058 0.249292 0.459347
333 19 2 -0.018412 0.240426 0.442564 0.470415
256 15 2 -0.018412 0.215123 0.0863009 0.456332
334 19 2 -0.0543881 0.283973 0.394626 0.480635
544 31 2 -0.018412 0.0612561 0.360022 0.441928
545 31 2 -0.0543881 0.0987636 0.304031 0.439301
543 31 2 -0.0543881 0.0134528 0.371283 0.477854
342 19 1 0.0629322 0.325541 0.386578 0.451882
617 35 2 -0.0543881 0.498323 0.014757 0.488799
329 19 2 -0.0543881 0.144713 0.499901 0.492866
425 24 1 0.0622985 0.381649 0.14858 0.460062
694 39 2 -0.0543881 0.923818 0.145563 0.486022
64 4 2 -0.0543881 0.638985 0.352178 0.467692
685 39 2 -0.0616365 0.890047 0.0959869 0.461325
102 6 1 0.0622985 0.639895 0.0588645 0.462015
93 6 2 -0.0543881 0.585134 0.144444 0.45347
104 6 1 0.0629322 0.52248 0.250121 0.483188
542 31 2 -0.0616365 0.977357 0.42646 0.472092
95 6 2 -0.0543881 0.523854 0.238219 0.440769
67 4 1 0.0629322 0.740604 0.201352 0.477095
72 4 1 0.0629322 0.613497 0.395622 0.463817
57 4 2 -0.0543881 0.713679 0.245869 0.470428
702 39 1 0.0629322 0.912272 0.195877 0.479649
686 39 2 -0.0616365 0.908785 0.0335835 0.469452
103 6 1 0.0629322 0.592786 0.151857 0.496827
552 31 1 0.0622985 0.935716 0.434563 0.498011
284 16 1 0.0629322 0.40044 0.626804 0.458171
262 15 2 -0.0543881 0.275579 0.997025 0.482435
330 19 2 -0.0616365 0.157151 0.539025 0.449963
618 35 2 -0.0616365 0.480785 0.971888 0.45171
282 16 1 0.0622985 0.180676 0.678262 0.447901
270 15 1 0.0629322 0.292015 0.948747 0.478451
273 16 2 -0.0543881 0.280999 0.676074 0.460761
275 16 2 -0.0543881 0.390067 0.670782 0.485357
396 22 1 0.0629322 0.0912001 0.824319 0.440834
274 16 2 -0.018412 0.330023 0.697206 0.489977
619 35 2 -0.0616365 0.496637 0.910504 0.456194
272 16 2 -0.0616365 0.220142 0.699486 0.470141
339 19 1 0.0622985 0.125882 0.579274 0.443916
571 32 1 0.0629322 0.600066 0.621531 0.443077
178 10 1 0.0622985 0.941078 0.741625 0.475953
175 10 1 0.0629322 0.6817 0.847538 0.477766
150 9 2 -0.0616365 0.773222 0.542103 0.438391
562 32 2 -0.018412 0.540826 0.539905 0.438805
696 39 1 0.0622985 0.87837 0.996137 0.450215
165 10 2 -0.0543881 0.725521 0.867063 0.455112
516 29 1 0.0622985 0.942802 0.599753 0.489189
167 10 2 -0.0543881 0.783654 0.783494 0.496262
620 35 2 -0.0543881 0.533748 0.889755 0.498482
166 10 2 -0.018412 0.7817 0.835554 0.461197
563 32 2 -0.0543881 0.553581 0.523857 0.49176
158 9 1 0.0629322 0.864494 0.573322 0.449815
169 10 2 -0.0616365 0.895473 0.767817 0.472969
159 9 1 0.0622985 0.768236 0.53217 0.481139
328 19 2 -0.018412 0.185852 0.449888 0.502486
254 15 2 -0.0616365 0.276571 0.0904598 0.536253
255 15 2 -0.0543881 0.232295 0.118377 0.502004
253 15 2 -0.0616365 0.295116 0.0304934 0.527065
325 19 2 -0.0616365 0.27613 0.358008 0.526167
265 15 1 0.0629322 0.212084 0.165785 0.51251
335 19 1 0.0622985 0.309755 0.320013 0.536964
553 31 1 0.0629322 0.00132831 0.33639 0.507354
326 19 2 -0.0616365 0.225478 0.36878 0.559649
327 19 2 -0.0543881 0.180144 0.41431 0.548453
692 39 2 -0.0543881 0.0117793 0.179895 0.541836
35 2 1 0.0629322 0.478868 0.186369 0.56146
34 2 1 0.0622985 0.371206 0.223046 0.549902
689 39 2 -0.0543881 0.0503875 0.0572162 0.555721
574 32 1 0.0622985 0.455907 0.393393 0.507177
263 15 1 0.0622985 0.326292 0.00477565 0.556933
688 39 2 -0.018412 0.995705 0.067232 0.525112
55 4 2 -0.0616365 0.655699 0.326481 0.516858
56 4 2 -0.0616365 0.694831 0.274959 0.515636
65 4 1 0.0622985 0.640255 0.346713 0.556113
564 32 2 -0.0616365 0.522406 0.473034 0.514966
573 32 1 0.0622985 0.537931 0.463622 0.557238
693 39 2 -0.018412 0.976562 0.131024 0.518521
687 39 2 -0.0543881 0.960893 0.0197933 0.501492
701 39 1 0.0629322 0.99668 0.231383 0.53719
15 1 1 0.0622985 0.704063 0.0885261 0.531781
6 1 2 -0.0616365 0.742401 0.0702699 0.560801
66 4 1 0.0622985 0.713602 0.254002 0.554921
281 16 1 0.0622985 0.161038 0.770021 0.514142
505 29 2 -0.0616365 0.0116916 0.645372 0.541997
285 16 1 0.0622985 0.488948 0.672664 0.510894
515 29 1 0.0622985 0.0501686 0.655227 0.509594
210 12 1 0.0622985 0.181323 0.618178 0.555446
212 12 1 0.0629322 0.37781 0.509388 0.556071
278 16 2 -0.0543881 0.374404 0.776513 0.550086
211 12 1 0.0629322 0.285822 0.580346 0.531282
277 16 2 -0.0616365 0.433677 0.749698 0.545314
276 16 2 -0.0616365 0.442476 0.695436 0.514398
288 16 1 0.0629322 0.251834 0.815067 0.558554
279 16 2 -0.018412 0.32247 0.747013 0.524124
280 16 2 -0.0543881 0.261608 0.774003 0.531303
338 19 1 0.0629322 0.107977 0.510462 0.522568
271 16 2 -0.0616365 0.209103 0.748777 0.505176
697 39 1 0.0629322 0.979198 0.968277 0.506822
177 10 1 0.0622985 0.843911 0.71026 0.530275
572 32 1 0.0629322 0.58752 0.551521 0.516647
176 10 1 0.0629322 0.743543 0.771728 0.520565
621 35 2 -0.018412 0.553205 0.933896 0.534575
506 29 2 -0.0616365 0.954476 0.614213 0.530488
616 35 2 -0.018412 0.535977 0.996324 0.530781
168 10 2 -0.0616365 0.841526 0.74993 0.502139
480 27 1 0.0622985 0.723675 0.644691 0.546122
629 35 1 0.0629322 0.551761 0.840222 0.501469
691 39 2 -0.0616365 0.0660731 0.167507 0.569692
700 39 1 0.0622985 0.0963399 0.206913 0.587956
264 15 1 0.0622985 0.293622 0.114055 0.574092
690 39 2 -0.0616365 0.0844888 0.105976 0.576491
336 19 1 0.0622985 0.219178 0.340052 0.596451
25 2 2 -0.0616365 0.395773 0.237074 0.587626
26 2 2 -0.0543881 0.456525 0.217092 0.592604
213 12 1 0.0622985 0.429852 0.437484 0.620465
699 39 1 0.0622985 0.129675 0.0934253 0.599696
337 19 1 0.0629322 0.137024 0.419478 0.576461
33 2 1 0.0622985 0.317443 0.283433 0.619816
698 39 1 0.0629322 0.0664766 0.00865278 0.56594
615 35 2 -0.0543881 0.556473 0.0414542 0.567752
713 40 1 0.0622985 0.852713 0.313676 0.589105
704 40 2 -0.0616365 0.891209 0.405754 0.620568
7 1 2 -0.0616365 0.758235 0.00897662 0.57302
36 2 1 0.0629322 0.576499 0.189632 0.605063
5 1 2 -0.0543881 0.776647 0.118091 0.582046
14 1 1 0.0629322 0.763886 0.167589 0.570413
703 40 2 -0.0616365 0.852682 0.352035 0.621655
614 35 2 -0.0616365 0.597354 0.0229684 0.607383
4 1 2 -0.018412 0.829306 0.107415 0.61269
625 35 1 0.0629322 0.541396 0.0917113 0.569094
9 1 2 -0.018412 0.847513 0.0445506 0.621533
714 40 1 0.0622985 0.926215 0.412512 0.585569
13 1 1 0.0629322 0.85484 0.206905 0.619189
286 16 1 0.0622985 0.476198 0.77222 0.566178
514 29 2 -0.0543881 0.0262738 0.665821 0.59234
287 16 1 0.0629322 0.370093 0.819595 0.577502
201 12 2 -0.0543881 0.268129 0.570228 0.571662
200 12 2 -0.0616365 0.210768 0.594411 0.585652
203 12 2 -0.0543881 0.356901 0.505152 0.596588
895 50 1 0.0629322 0.0659518 0.912603 0.602232
202 12 2 -0.018412 0.303715 0.535104 0.609381
522 29 1 0.0629322 0.0725387 0.691026 0.59918
622 35 2 -0.0543881 0.597156 0.918604 0.574255
8 1 2 -0.0543881 0.809565 0.994594 0.603777
472 27 2 -0.018412 0.663193 0.523424 0.624202
630 35 1 0.0629322 0.617973 0.870997 0.576257
894 50 1 0.0622985 0.984303 0.842032 0.585674
469 27 2 -0.0616365 0.630089 0.645588 0.585347
470 27 2 -0.0616365 0.690678 0.617558 0.572513
481 27 1 0.0629322 0.750399 0.536142 0.58495
507 29 2 -0.0543881 0.908475 0.60755 0.57209
613 35 2 -0.0616365 0.617885 0.963762 0.612391
479 27 1 0.0622985 0.614193 0.69326 0.565096
471 27 2 -0.0543881 0.705229 0.557812 0.593178
17 1 1 0.0629322 0.817953 0.943676 0.611733
478 27 2 -0.0543881 0.584694 0.613687 0.616779
508 29 2 -0.018412 0.924049 0.6311 0.623207
517 29 1 0.0629322 0.860581 0.587583 0.56298
16 1 1 0.0622985 0.72731 0.967292 0.562531
881 49 1 0.0629322 0.0433921 0.398762 0.63503
24 2 2 -0.0616365 0.368256 0.273322 0.626142
880 49 1 0.0622985 0.0968072 0.495807 0.663871
661 37 1 0.0629322 0.295252 0.0108447 0.665545
27 2 2 -0.018412 0.491852 0.237424 0.636121
23 2 2 -0.0543881 0.404424 0.291793 0.66765
205 12 2 -0.0616365 0.366262 0.458861 0.682295
22 2 2 -0.018412 0.467283 0.275568 0.673621
204 12 2 -0.0616365 0.387497 0.467006 0.631631
872 49 2 -0.0543881 0.0417384 0.41342 0.679159
684 38 1 0.0629322 0.164483 0.236255 0.67031
677 38 1 0.0622985 0.217248 0.336935 0.686382
482 27 1 0.0629322 0.72058 0.441426 0.638208
624 35 1 0.0622985 0.615789 0.0569411 0.637439
705 40 2 -0.0543881 0.892182 0.444473 0.664279
715 40 1 0.0629322 0.923045 0.486264 0.666024
3 1 2 -0.0543881 0.868713 0.155535 0.629689
28 2 2 -0.0543881 0.556918 0.2209 0.635635
720 40 1 0.0629322 0.780414 0.301914 0.662869
473 27 2 -0.0543881 0.677357 0.465502 0.646111
19 2 2 -0.0616365 0.594585 0.245388 0.676225
712 40 2 -0.0543881 0.810777 0.343434 0.664023
2 1 2 -0.0616365 0.925761 0.142127 0.65813
483 27 1 0.0622985 0.643256 0.379404 0.685923
474 27 2 -0.0616365 0.63329 0.431212 0.674206
10 1 2 -0.0543881 0.901634 0.0324492 0.652131
1 1 2 -0.0616365 0.941631 0.0803416 0.669939
29 2 1 0.0622985 0.649684 0.246558 0.679049
12 1 1 0.0622985 0.958588 0.178318 0.67051
475 27 2 -0.0616365 0.573953 0.457929 0.681242
882 49 1 0.0629322 0.981101 0.3038 0.666226
651 37 2 -0.0543881 0.347969 0.995138 0.671673
523 30 2 -0.0616365 0.275873 0.730466 0.666365
208 12 2 -0.0543881 0.223991 0.556232 0.675511
660 37 1 0.0622985 0.329306 0.906756 0.631001
885 50 2 -0.0543881 0.0396994 0.897613 0.637321
207 12 2 -0.018412 0.279147 0.524881 0.661178
650 37 2 -0.0616365 0.364712 0.937382 0.650808
534 30 1 0.0622985 0.18632 0.721951 0.630507
199 12 2 -0.0616365 0.189675 0.586367 0.637522
524 30 2 -0.0616365 0.2143 0.747516 0.662167
209 12 1 0.0622985 0.140779 0.604429 0.650892
533 30 1 0.0622985 0.29797 0.693402 0.639682
896 50 1 0.0629322 0.121046 0.98661 0.657606
659 37 1 0.0622985 0.443343 0.871838 0.638459
649 37 2 -0.0616365 0.427097 0.917155 0.65661
658 37 2 -0.0543881 0.470028 0.956769 0.683346
512 29 2 -0.0543881 0.00233771 0.675601 0.684272
886 50 2 -0.018412 0.051151 0.923874 0.687107
476 27 2 -0.0543881 0.558736 0.515131 0.660271
486 27 1 0.0629322 0.539664 0.633814 0.626354
513 29 2 -0.018412 0.984743 0.656464 0.634312
822 46 1 0.0622985 0.682205 0.81934 0.63137
18 1 1 0.0629322 0.917647 0.982443 0.661988
518 29 1 0.0629322 0.846361 0.587353 0.652922
509 29 2 -0.0543881 0.887378 0.614724 0.666013
823 46 1 0.0629322 0.737435 0.720606 0.650831
477 27 2 -0.018412 0.603209 0.552564 0.634408
812 46 2 -0.0616365 0.663549 0.789213 0.664581
884 50 2 -0.0616365 0.991231 0.854369 0.629838
623 35 1 0.0622985 0.649188 0.950053 0.64564
485 27 1 0.0629322 0.509974 0.535875 0.664313
893 50 1 0.0622985 0.915607 0.800889 0.669042
813 46 2 -0.0543881 0.697893 0.735148 0.676783
883 50 2 -0.0616365 0.956304 0.834568 0.673236
821 46 1 0.0622985 0.585671 0.854497 0.682846
666 37 1 0.0629322 0.51992 0.938478 0.686825
667 38 2 -0.0616365 0.186441 0.318235 0.719082
214 12 1 0.0622985 0.387455 0.426377 0.714549
32 2 1 0.0629322 0.379993 0.323275 0.699743
654 37 2 -0.0616365 0.411943 0.131316 0.733575
871 49 2 -0.0616365 0.0710594 0.46873 0.693664
656 37 2 -0.0543881 0.493861 0.0544855 0.73079
873 49 2 -0.018412 0.0085376 0.380579 0.718495
655 37 2 -0.0616365 0.472526 0.11361 0.744791
657 37 2 -0.018412 0.453741 0.0127271 0.704631