ITEM: TIMESTEP
0
ITEM: NUMBER OF ATOMS
900
ITEM: BOX BOUNDS pp pp pp
7.2048547580331501e-01 2.1269107524196713e+01
7.2048547580331501e-01 2.1269107524196713e+01
1.0873363943320696e+03 1.1116228976679304e+03
ITEM: ATOMS id mol type q xs ys zs
401 23 2 -0.0543881 0.0893171 0.267855 0.0373772
831 47 2 -0.0543881 0.233178 0.417791 0.00379901
400 23 2 -0.018412 0.0925847 0.328879 0.0567607
436 25 2 -0.018412 0.464828 0.196418 0.0603402
839 47 1 0.0622985 0.309552 0.286256 0.0531362
37 3 2 -0.0616365 0.185879 0.130539 0.0111238
405 23 2 -0.018412 0.0722737 0.380855 0.0262328
830 47 2 -0.0616365 0.257082 0.354224 0.00483642
829 47 2 -0.0616365 0.285034 0.332527 0.0496984
181 11 2 -0.0616365 0.440478 0.431295 0.0241931
414 23 1 0.0629322 0.0502398 0.482012 0.0236467
191 11 1 0.0622985 0.414658 0.396186 0.0509895
182 11 2 -0.0616365 0.496252 0.459899 0.0416104
438 25 2 -0.0616365 0.424322 0.0961868 0.0332414
447 25 1 0.0622985 0.387662 0.0577599 0.0426091
832 47 2 -0.018412 0.237839 0.453693 0.0514818
40 3 2 -0.018412 0.144239 0.0149417 0.0475773
406 23 2 -0.0543881 0.0702664 0.442665 0.0493136
442 25 2 -0.0543881 0.551606 0.242102 0.0127639
433 25 2 -0.0616365 0.549052 0.292901 0.0481203
130 8 2 -0.018412 0.833523 0.0677163 0.0335462
443 25 1 0.0622985 0.586403 0.330423 0.0455671
744 42 2 -0.0616365 0.807321 0.305548 0.0353061
597 34 2 -0.0543881 0.660262 0.119257 0.0323273
607 34 1 0.0629322 0.696636 0.159887 0.0317154
131 8 2 -0.0543881 0.806413 0.00882136 0.0167011
755 42 1 0.0629322 0.94277 0.380959 0.0598435
745 42 2 -0.0616365 0.863616 0.335889 0.0259289
604 34 2 -0.0543881 0.594324 0.00675823 0.0412996
441 25 2 -0.018412 0.506737 0.194951 0.0186521
128 8 2 -0.0616365 0.894524 0.163701 0.0186764
753 42 1 0.0622985 0.775554 0.291602 0.00103711
861 48 1 0.0622985 0.210142 0.709803 0.0368297
730 41 2 -0.0543881 0.00173298 0.630814 0.036893
51 3 1 0.0622985 0.0950513 0.860759 0.0396983
842 47 1 0.0629322 0.200725 0.543229 0.0176798
863 48 1 0.0629322 0.374329 0.822171 0.00319494
833 47 2 -0.0543881 0.218968 0.518303 0.0529408
42 3 2 -0.0616365 0.106886 0.908395 0.0312301
853 48 2 -0.0616365 0.295724 0.761605 0.025108
731 41 1 0.0622985 0.0548348 0.70855 0.00613104
309 18 2 -0.0543881 0.46809 0.68096 0.00560971
721 41 2 -0.0616365 0.0380405 0.685377 0.0410751
307 18 2 -0.0616365 0.383755 0.609753 0.0342677
852 48 2 -0.0616365 0.23633 0.741919 0.00813389
308 18 2 -0.0616365 0.436738 0.644521 0.0470986
301 17 1 0.0629322 0.983967 0.956513 0.0127948
141 8 1 0.0622985 0.766051 0.916741 0.0449649
183 11 2 -0.0543881 0.52535 0.506656 0.0092201
319 18 1 0.0629322 0.512323 0.703699 0.0183321
193 11 1 0.0629322 0.569886 0.527112 0.0230193
791 44 1 0.0629322 0.632937 0.721701 0.0331651
784 44 2 -0.0543881 0.753396 0.771092 0.0302949
775 44 2 -0.0616365 0.816322 0.793568 0.0339144
132 8 2 -0.0616365 0.786397 0.965739 0.0559689
737 41 1 0.0629322 0.925859 0.527712 0.0420154
612 34 1 0.0629322 0.570202 0.957765 0.0437883
782 44 2 -0.0543881 0.668523 0.701926 0.0615426
785 44 1 0.0622985 0.831231 0.826003 0.00272473
48 3 1 0.0622985 0.198149 0.157688 0.0920005
39 3 2 -0.0543881 0.164445 0.0606751 0.0840121
399 23 2 -0.0543881 0.112339 0.34066 0.107428
837 47 2 -0.018412 0.264183 0.429124 0.0964906
397 23 2 -0.0616365 0.0850674 0.449764 0.101355
246 14 1 0.0622985 0.00707955 0.029048 0.0661169
38 3 2 -0.0616365 0.183152 0.118046 0.0649048
446 25 1 0.0629322 0.386083 0.149204 0.10045
437 25 2 -0.0543881 0.421448 0.148766 0.0663586
838 47 2 -0.0543881 0.288601 0.370512 0.0938565
435 25 2 -0.0543881 0.462523 0.249676 0.0939697
247 14 1 0.0629322 0.0196355 0.141414 0.0936868
407 23 1 0.0622985 0.0759458 0.499751 0.121116
410 23 1 0.0629322 0.102137 0.227247 0.0665769
747 42 2 -0.018412 0.879522 0.34244 0.120308
746 42 2 -0.0543881 0.900479 0.355447 0.068694
236 14 2 -0.0616365 0.990121 0.047513 0.108474
137 8 1 0.0622985 0.914282 0.217908 0.0888734
434 25 2 -0.0616365 0.504487 0.29869 0.0872697
736 41 1 0.0622985 0.89167 0.47266 0.11967
598 34 2 -0.018412 0.624179 0.109284 0.0767084
602 34 2 -0.0543881 0.549697 0.0452206 0.122956
135 8 2 -0.018412 0.833192 0.0798697 0.0862781
156 9 1 0.0622985 0.693441 0.433728 0.105866
603 34 2 -0.018412 0.589333 0.0513852 0.0807974
599 34 2 -0.0543881 0.623766 0.14849 0.119963
743 42 2 -0.0543881 0.787577 0.292757 0.0863953
192 11 1 0.0622985 0.516599 0.445317 0.0807317
608 34 1 0.0629322 0.65976 0.190526 0.121017
752 42 1 0.0629322 0.743327 0.264411 0.0906657
444 25 1 0.0622985 0.504606 0.338517 0.11322
127 8 2 -0.0616365 0.8895 0.178304 0.0729632
136 8 2 -0.0543881 0.854081 0.137632 0.10575
237 14 2 -0.0543881 0.997129 0.11049 0.124648
134 8 2 -0.0543881 0.813575 0.0349347 0.122124
862 48 1 0.0622985 0.322254 0.747933 0.0635525
843 47 1 0.0622985 0.207329 0.602737 0.0951851
317 18 1 0.0622985 0.361602 0.579595 0.0653543
732 41 1 0.0622985 0.0776738 0.754786 0.0926748
318 18 1 0.0622985 0.459519 0.647837 0.0871545
354 20 1 0.0622985 0.490833 0.864915 0.10067
41 3 2 -0.0543881 0.12198 0.955116 0.0669592
834 47 2 -0.0616365 0.224169 0.553721 0.0968385
722 41 2 -0.0616365 0.0493304 0.712627 0.0904408
50 3 1 0.0629322 0.121641 0.944807 0.111955
728 41 2 -0.0543881 0.943939 0.548185 0.080588
778 44 2 -0.018412 0.775094 0.699774 0.101359
729 41 2 -0.018412 0.978027 0.603664 0.0823324
790 44 1 0.0622985 0.600859 0.638925 0.0984848
781 44 2 -0.0616365 0.648559 0.658302 0.100922
133 8 2 -0.0616365 0.790563 0.97539 0.108107
783 44 2 -0.018412 0.730217 0.723628 0.0647775
353 20 1 0.0622985 0.573566 0.780206 0.106043
727 41 2 -0.0616365 0.922918 0.514039 0.123146
776 44 2 -0.0616365 0.856764 0.764605 0.0682919
777 44 2 -0.0543881 0.836632 0.717315 0.100489
786 44 1 0.0622985 0.908766 0.778567 0.0672833
398 23 2 -0.0616365 0.109222 0.39936 0.130483
836 47 2 -0.0543881 0.267766 0.465941 0.14221
408 23 1 0.0622985 0.123641 0.406169 0.173132
409 23 1 0.0629322 0.134784 0.300786 0.131314
49 3 1 0.0629322 0.159669 0.048238 0.126838
846 47 1 0.0629322 0.314534 0.349597 0.128773
445 25 1 0.0629322 0.42725 0.253763 0.126972
248 14 1 0.0629322 0.0187421 0.221548 0.160402
845 47 1 0.0629322 0.289249 0.448919 0.179365
601 34 2 -0.0616365 0.549992 0.0880312 0.16506
756 42 1 0.0629322 0.961408 0.38792 0.158317
235 14 2 -0.0616365 0.966587 0.00514175 0.14641
155 9 1 0.0622985 0.608728 0.351898 0.137708
748 42 2 -0.0543881 0.914971 0.358906 0.163289
600 34 2 -0.0616365 0.586374 0.142341 0.163061
742 42 2 -0.018412 0.822858 0.312576 0.128561
145 9 2 -0.0616365 0.643745 0.378507 0.166946
146 9 2 -0.0616365 0.688192 0.425105 0.148333
741 42 2 -0.0543881 0.803198 0.303204 0.181724
144 8 1 0.0629322 0.850941 0.146705 0.149766
143 8 1 0.0629322 0.818751 0.0465564 0.166667
238 14 2 -0.018412 0.980702 0.130864 0.174902
157 9 1 0.0629322 0.766562 0.48807 0.169763
147 9 2 -0.0543881 0.729109 0.45446 0.182941
611 34 1 0.0629322 0.516915 0.0031516 0.126624
733 41 1 0.0629322 0.0477969 0.703354 0.176415
569 32 1 0.0622985 0.430877 0.53566 0.137365
723 41 2 -0.0543881 0.0316474 0.681829 0.137868
393 22 1 0.0622985 0.191563 0.727125 0.129099
355 20 1 0.0629322 0.435745 0.90042 0.186599
806 45 1 0.0629322 0.29417 0.877392 0.185411
392 22 1 0.0629322 0.146666 0.831508 0.153219
804 45 1 0.0622985 0.38887 0.677488 0.163724
805 45 1 0.0629322 0.332154 0.777823 0.148607
835 47 2 -0.0616365 0.246759 0.526235 0.142912
345 20 2 -0.0543881 0.47446 0.861083 0.186074
384 22 2 -0.0616365 0.185265 0.736233 0.171653
559 32 2 -0.0616365 0.458961 0.528747 0.173596
844 47 1 0.0622985 0.249944 0.554903 0.179406
560 32 2 -0.0616365 0.498529 0.577456 0.186234
383 22 2 -0.0543881 0.157663 0.792714 0.186465
343 20 2 -0.0616365 0.548901 0.794389 0.142241
344 20 2 -0.0616365 0.503267 0.841976 0.140468
142 8 1 0.0622985 0.777516 0.941751 0.138815
725 41 2 -0.0543881 0.974614 0.59146 0.17772
787 44 1 0.0629322 0.873426 0.699297 0.129147
724 41 2 -0.018412 0.993518 0.625822 0.132796
780 44 2 -0.0616365 0.692176 0.632416 0.135695
570 32 1 0.0622985 0.507332 0.617473 0.158813
726 41 2 -0.0616365 0.939001 0.537008 0.172998
245 14 1 0.0622985 0.964037 0.955838 0.133819
779 44 2 -0.0543881 0.753967 0.651137 0.135615
106 6 1 0.0622985 0.601988 0.951887 0.185626
788 44 1 0.0629322 0.790266 0.628399 0.164448
789 44 1 0.0622985 0.677638 0.594711 0.162664
419 24 2 -0.0543881 0.332216 0.103033 0.241632
417 24 2 -0.0543881 0.285631 0.207461 0.217118
428 24 1 0.0629322 0.29958 0.0817069 0.210838
568 32 2 -0.0543881 0.451319 0.476917 0.206832
576 32 1 0.0629322 0.412531 0.44073 0.197723
426 24 1 0.0622985 0.246736 0.300337 0.198735
416 24 2 -0.0616365 0.280414 0.27238 0.223994
267 15 1 0.0622985 0.106992 0.121382 0.221381
268 15 1 0.0622985 0.161349 0.0153727 0.233079
418 24 2 -0.018412 0.327521 0.1695 0.247971
427 24 1 0.0629322 0.250182 0.182631 0.190263
239 14 2 -0.0543881 0.995491 0.189979 0.190644
610 34 1 0.0622985 0.519862 0.0802663 0.201522
244 14 2 -0.0543881 0.946622 0.0224725 0.19496
240 14 2 -0.0616365 0.981841 0.209332 0.241867
162 9 1 0.0629322 0.610489 0.328115 0.238104
154 9 2 -0.0543881 0.644154 0.36357 0.221388
609 34 1 0.0622985 0.58529 0.178474 0.197228
739 42 2 -0.0616365 0.897098 0.346901 0.213776
751 42 1 0.0629322 0.757452 0.278155 0.188832
243 14 2 -0.018412 0.954374 0.0857623 0.209848
148 9 2 -0.018412 0.728384 0.440922 0.23726
740 42 2 -0.0616365 0.839736 0.318908 0.222575
749 42 1 0.0622985 0.927017 0.361192 0.247149
795 45 2 -0.0543881 0.340048 0.759301 0.190611
797 45 2 -0.0543881 0.29585 0.856027 0.226523
382 22 2 -0.018412 0.147285 0.809438 0.239392
391 22 1 0.0629322 0.104381 0.899839 0.221565
794 45 2 -0.0616365 0.369 0.702755 0.199421
385 22 2 -0.0616365 0.202047 0.695067 0.211394
394 22 1 0.0622985 0.224442 0.648612 0.200978
346 20 2 -0.018412 0.489823 0.833354 0.234051
796 45 2 -0.018412 0.319105 0.796297 0.233876
793 45 2 -0.0616365 0.373681 0.681462 0.24992
735 41 1 0.0622985 0.92514 0.510322 0.210746
224 13 2 -0.0543881 0.809248 0.825235 0.237369
233 13 1 0.0629322 0.767073 0.855106 0.231885
98 6 2 -0.0543881 0.678141 0.984013 0.236001
222 13 2 -0.0616365 0.921358 0.802109 0.227996
232 13 1 0.0622985 0.87761 0.891552 0.204982
734 41 1 0.0629322 0.985584 0.611086 0.218816
97 6 2 -0.0616365 0.613393 0.972986 0.224575
223 13 2 -0.0616365 0.870734 0.842356 0.221938
107 6 1 0.0629322 0.710676 0.970533 0.203063
231 13 1 0.0622985 0.971593 0.814516 0.217469
351 20 2 -0.018412 0.538194 0.787753 0.236857
252 14 1 0.0629322 0.927389 0.990149 0.22544
360 20 1 0.0629322 0.598172 0.729357 0.188887
561 32 2 -0.0543881 0.530672 0.575903 0.232771
221 13 2 -0.0543881 0.908426 0.744088 0.247692
571 32 1 0.0629322 0.566195 0.611636 0.243402
352 20 2 -0.0543881 0.566021 0.769245 0.188891
423 24 2 -0.018412 0.364101 0.19871 0.285291
421 24 2 -0.0616365 0.405701 0.0984093 0.310397
567 32 2 -0.018412 0.482207 0.473511 0.25546
541 31 2 -0.0616365 0.116632 0.465093 0.272248
550 31 2 -0.0543881 0.098886 0.408774 0.291815
415 24 2 -0.0616365 0.318736 0.302238 0.264551
558 31 1 0.0629322 0.129592 0.365273 0.285632
258 15 2 -0.0616365 0.140252 0.115218 0.25654
259 15 2 -0.0616365 0.167593 0.0558218 0.265849
566 32 2 -0.0543881 0.472689 0.421673 0.290343
420 24 2 -0.0616365 0.373315 0.0677561 0.272347
551 31 1 0.0622985 0.163862 0.468695 0.252689
260 15 2 -0.0543881 0.203317 0.0464479 0.310174
257 15 2 -0.0543881 0.144479 0.162909 0.294793
424 24 2 -0.0543881 0.358603 0.264292 0.293817
266 15 1 0.0629322 0.11925 0.209758 0.287743
425 24 1 0.0622985 0.321623 0.354169 0.268874
575 32 1 0.0629322 0.435377 0.384805 0.279567
340 19 1 0.0622985 0.36482 0.496846 0.297642
429 24 1 0.0622985 0.375571 0.0159131 0.266306
67 4 1 0.0629322 0.760824 0.218727 0.269288
68 4 1 0.0629322 0.65498 0.172425 0.268652
251 14 1 0.0629322 0.919035 0.073816 0.292202
153 9 2 -0.018412 0.685532 0.394324 0.256565
750 42 1 0.0622985 0.82368 0.309512 0.263248
241 14 2 -0.0616365 0.95557 0.169326 0.27891
149 9 2 -0.0543881 0.772355 0.470758 0.272632
249 14 1 0.0622985 0.991916 0.258785 0.252479
59 4 2 -0.0543881 0.648254 0.178575 0.312275
242 14 2 -0.0543881 0.942625 0.106153 0.263622
99 6 2 -0.018412 0.697165 0.00679908 0.283188
69 4 1 0.0622985 0.55653 0.141372 0.308643
95 6 2 -0.0543881 0.587615 0.00340449 0.312121
108 6 1 0.0629322 0.797098 0.00606968 0.260763
100 6 2 -0.0543881 0.761702 0.0155021 0.294056
152 9 2 -0.0543881 0.687623 0.383622 0.312241
798 45 2 -0.0616365 0.276294 0.892983 0.264909
381 22 2 -0.0543881 0.118785 0.865138 0.255536
387 22 2 -0.018412 0.164949 0.766483 0.279167
807 45 1 0.0622985 0.263353 0.940973 0.25031
386 22 2 -0.0543881 0.190313 0.711561 0.264482
542 31 2 -0.0616365 0.079537 0.516158 0.27457
803 45 1 0.0622985 0.395251 0.637558 0.261223
802 45 2 -0.0543881 0.351709 0.71587 0.293328
801 45 2 -0.018412 0.326007 0.774658 0.285234
395 22 1 0.0629322 0.208192 0.676863 0.295062
552 31 1 0.0622985 0.0973706 0.560951 0.254895
543 31 2 -0.0543881 0.0193061 0.51163 0.297598
356 20 1 0.0629322 0.418484 0.88934 0.274543
347 20 2 -0.0543881 0.456739 0.851369 0.279357
380 22 2 -0.0616365 0.104458 0.877298 0.307677
339 19 1 0.0622985 0.271975 0.570042 0.283738
562 32 2 -0.018412 0.525519 0.522912 0.267847
234 13 1 0.0629322 0.697684 0.779176 0.259332
96 6 2 -0.0616365 0.566474 0.983655 0.263596
158 9 1 0.0629322 0.807809 0.506029 0.252556
229 13 1 0.0629322 0.879308 0.630975 0.286731
105 6 1 0.0622985 0.516023 0.974705 0.257403
553 31 1 0.0629322 0.985532 0.552951 0.300381
218 13 2 -0.0616365 0.777969 0.645933 0.298205
350 20 2 -0.0543881 0.549318 0.75876 0.286392
226 13 2 -0.0543881 0.738175 0.745583 0.268929
219 13 2 -0.0543881 0.83581 0.664077 0.281308
220 13 2 -0.018412 0.847411 0.724966 0.262372
359 20 1 0.0629322 0.588089 0.720775 0.293018
225 13 2 -0.018412 0.797194 0.765792 0.254857
230 13 1 0.0629322 0.948163 0.706667 0.253117
217 13 2 -0.0616365 0.727855 0.687755 0.291975
227 13 1 0.0622985 0.68213 0.671043 0.305207
557 31 1 0.0629322 0.0502571 0.303434 0.334308
430 24 1 0.0622985 0.433795 0.0636089 0.335958
261 15 2 -0.018412 0.210229 0.0931329 0.347271
549 31 2 -0.018412 0.0400567 0.403528 0.316392
548 31 2 -0.0543881 0.0200812 0.345981 0.337659
256 15 2 -0.018412 0.181689 0.152067 0.337784
432 24 1 0.0629322 0.388918 0.289926 0.323928
431 24 1 0.0629322 0.427839 0.186321 0.35743
422 24 2 -0.0543881 0.40367 0.163982 0.320897
574 32 1 0.0622985 0.496881 0.375391 0.366724
331 19 2 -0.0616365 0.324846 0.492385 0.32484
341 19 1 0.0629322 0.367897 0.417748 0.373277
332 19 2 -0.0543881 0.323073 0.448664 0.365376
265 15 1 0.0629322 0.162593 0.242869 0.370664
565 32 2 -0.0616365 0.505794 0.417463 0.33828
250 14 1 0.0622985 0.936529 0.186455 0.320267
161 9 1 0.0629322 0.65513 0.35235 0.33232
58 4 2 -0.018412 0.695076 0.209939 0.340133
151 9 2 -0.0616365 0.731583 0.413291 0.343671
101 6 1 0.0622985 0.82952 0.0370982 0.35449
94 6 2 -0.018412 0.650434 0.0155949 0.320681
150 9 2 -0.0616365 0.77485 0.453854 0.324879
60 4 2 -0.0616365 0.592325 0.161015 0.336365
544 31 2 -0.018412 0.999811 0.454626 0.321472
56 4 2 -0.0616365 0.7977 0.246629 0.345208
554 31 1 0.0629322 0.91088 0.491869 0.353321
104 6 1 0.0629322 0.553305 0.0100686 0.345359
545 31 2 -0.0543881 0.942407 0.449636 0.346942
546 31 2 -0.0616365 0.92076 0.394718 0.3696
159 9 1 0.0622985 0.811602 0.473678 0.353265
57 4 2 -0.0543881 0.749783 0.225047 0.313799
564 32 2 -0.0616365 0.547163 0.468106 0.353115
547 31 2 -0.0616365 0.959409 0.34189 0.363627
91 6 2 -0.0616365 0.779918 0.03244 0.343879
66 4 1 0.0622985 0.847809 0.252422 0.328448
93 6 2 -0.0543881 0.669936 0.0368414 0.36882
800 45 2 -0.0543881 0.30113 0.808826 0.326393
808 45 1 0.0622985 0.264243 0.901729 0.35186
390 22 1 0.0622985 0.0844439 0.925217 0.317891
269 15 1 0.0629322 0.220179 0.995945 0.320755
809 45 1 0.0629322 0.305459 0.789782 0.366743
810 45 1 0.0629322 0.353562 0.697227 0.337788
379 22 2 -0.0616365 0.121056 0.834909 0.34811
357 20 1 0.0622985 0.43927 0.833009 0.364041
388 22 2 -0.0543881 0.148899 0.778791 0.330356
396 22 1 0.0629322 0.155711 0.74094 0.361769
348 20 2 -0.0616365 0.467226 0.821891 0.325942
338 19 1 0.0629322 0.179538 0.562403 0.341093
330 19 2 -0.0616365 0.273967 0.534449 0.317106
329 19 2 -0.0543881 0.221569 0.530872 0.349186
799 45 2 -0.0616365 0.278327 0.870782 0.318056
563 32 2 -0.0543881 0.558478 0.514739 0.315713
349 20 2 -0.0616365 0.514656 0.774751 0.330716
358 20 1 0.0622985 0.522635 0.75154 0.371011
180 10 1 0.0629322 0.97401 0.809464 0.370903
572 32 1 0.0629322 0.595996 0.551529 0.328348
228 13 1 0.0622985 0.768169 0.601479 0.31542
333 19 2 -0.018412 0.269343 0.444928 0.39785
328 19 2 -0.018412 0.219275 0.48691 0.388814
628 35 1 0.0622985 0.37931 0.0259979 0.411617
262 15 2 -0.0543881 0.245092 0.0840181 0.391967
270 15 1 0.0629322 0.262985 0.0338459 0.399801
253 15 2 -0.0616365 0.250636 0.13278 0.430253
254 15 2 -0.0616365 0.223556 0.190272 0.421463
255 15 2 -0.0543881 0.186749 0.197213 0.376753
34 2 1 0.0622985 0.427304 0.308201 0.417424
327 19 2 -0.0543881 0.164479 0.480214 0.419636
334 19 2 -0.0543881 0.263388 0.399086 0.436043
63 4 2 -0.018412 0.686238 0.218838 0.395308
102 6 1 0.0622985 0.753384 0.0508549 0.423603
573 32 1 0.0622985 0.574593 0.463211 0.392729
70 4 1 0.0622985 0.535161 0.170645 0.408154
696 39 1 0.0622985 0.97655 0.0232114 0.41914
160 9 1 0.0622985 0.727832 0.398719 0.388975
685 39 2 -0.0616365 0.954605 0.121429 0.427864
64 4 2 -0.0543881 0.737678 0.243093 0.425072
92 6 2 -0.0616365 0.734098 0.0429978 0.382015
695 39 1 0.0622985 0.90713 0.115333 0.409926
103 6 1 0.0629322 0.631462 0.0430105 0.401674
62 4 2 -0.0543881 0.629765 0.202851 0.421296
55 4 2 -0.0616365 0.793572 0.258494 0.401063
686 39 2 -0.0616365 0.994876 0.07031 0.433865
65 4 1 0.0622985 0.835855 0.280077 0.421947
61 4 2 -0.0616365 0.582344 0.177018 0.390003
555 31 1 0.0622985 0.878385 0.393477 0.394833
556 31 1 0.0622985 0.947628 0.296993 0.382536
213 12 1 0.0622985 0.423692 0.51488 0.416307
179 10 1 0.0629322 0.0167168 0.686219 0.379133
389 22 1 0.0622985 0.105635 0.841812 0.390645
178 10 1 0.0622985 0.000119973 0.57923 0.407249
337 19 1 0.0629322 0.124141 0.512087 0.415905
283 16 1 0.0629322 0.235844 0.610473 0.432344
629 35 1 0.0629322 0.440703 0.932957 0.433124
474 27 2 -0.0616365 0.69944 0.58437 0.429825
171 10 2 -0.018412 0.922758 0.724176 0.402629
164 10 2 -0.0616365 0.824422 0.811905 0.415415
170 10 2 -0.0543881 0.970028 0.677471 0.398423
172 10 2 -0.0543881 0.929194 0.788397 0.386498
169 10 2 -0.0616365 0.960259 0.616919 0.414016
166 10 2 -0.018412 0.866702 0.703132 0.429224
173 10 1 0.0622985 0.886154 0.881978 0.384214
483 27 1 0.0622985 0.739104 0.578781 0.402253
163 10 2 -0.0616365 0.879877 0.832633 0.394377
482 27 1 0.0629322 0.689667 0.682055 0.402941
165 10 2 -0.0543881 0.818279 0.748464 0.431089
174 10 1 0.0622985 0.784251 0.84638 0.416683
473 27 2 -0.0543881 0.673219 0.64423 0.433479
325 19 2 -0.0616365 0.21241 0.398108 0.470507
342 19 1 0.0629322 0.305466 0.367456 0.438792
33 2 1 0.0622985 0.334031 0.284587 0.478639
25 2 2 -0.0616365 0.4323 0.298059 0.460565
687 39 2 -0.0543881 0.0499427 0.0745553 0.462115
263 15 1 0.0622985 0.283961 0.124742 0.4649
264 15 1 0.0622985 0.227653 0.232577 0.450951
618 35 2 -0.0616365 0.434603 0.0882098 0.460433
701 39 1 0.0629322 0.0275738 0.286137 0.486803
326 19 2 -0.0616365 0.162097 0.436611 0.460627
24 2 2 -0.0616365 0.382209 0.285684 0.495939
688 39 2 -0.018412 0.0689029 0.132191 0.483287
693 39 2 -0.018412 0.0316121 0.185957 0.475205
627 35 1 0.0622985 0.40482 0.130437 0.450587
697 39 1 0.0629322 0.0783084 0.0283149 0.465393
619 35 2 -0.0616365 0.417845 0.0304024 0.438634
205 12 2 -0.0616365 0.466839 0.475972 0.487749
617 35 2 -0.0543881 0.482814 0.0949701 0.496047
714 40 1 0.0622985 0.0160948 0.40877 0.481869
26 2 2 -0.0543881 0.49243 0.298888 0.480082
692 39 2 -0.0543881 0.0548622 0.243494 0.493499
336 19 1 0.0622985 0.116317 0.433458 0.484097
35 2 1 0.0629322 0.532744 0.305221 0.452905
71 4 1 0.0629322 0.62316 0.209535 0.46517
694 39 2 -0.0543881 0.973841 0.178742 0.448186
702 39 1 0.0629322 0.939028 0.221189 0.443416
713 40 1 0.0622985 0.928555 0.325297 0.489212
72 4 1 0.0629322 0.725683 0.249512 0.469263
214 12 1 0.0622985 0.508856 0.460785 0.465258
484 27 1 0.0622985 0.696348 0.484949 0.458196
276 16 2 -0.0616365 0.37547 0.729056 0.464278
271 16 2 -0.0616365 0.139607 0.734165 0.46917
272 16 2 -0.0616365 0.157633 0.67321 0.454846
281 16 1 0.0622985 0.0879099 0.749092 0.476135
285 16 1 0.0622985 0.427419 0.715241 0.46224
277 16 2 -0.0616365 0.360702 0.790799 0.477312
212 12 1 0.0629322 0.319203 0.53954 0.460649
620 35 2 -0.0543881 0.454566 0.979776 0.4513
288 16 1 0.0629322 0.169987 0.82272 0.493577
274 16 2 -0.018412 0.264987 0.70152 0.457587
275 16 2 -0.0543881 0.328475 0.685194 0.452859
279 16 2 -0.018412 0.248272 0.761926 0.472344
284 16 1 0.0629322 0.346166 0.64057 0.437546
273 16 2 -0.0543881 0.219968 0.657044 0.447891
280 16 2 -0.0543881 0.184131 0.776724 0.478905
895 50 1 0.0629322 0.103804 0.914724 0.484307
278 16 2 -0.0543881 0.295928 0.808008 0.480085
894 50 1 0.0622985 0.0117903 0.857398 0.455681
286 16 1 0.0622985 0.400363 0.824999 0.48634
204 12 2 -0.0616365 0.418127 0.504547 0.460816
287 16 1 0.0629322 0.282906 0.858336 0.49039
282 16 1 0.0622985 0.121932 0.637272 0.444996
203 12 2 -0.0543881 0.36178 0.520907 0.484315
884 50 2 -0.0616365 0.00907718 0.884694 0.492083
177 10 1 0.0622985 0.900257 0.547831 0.455265
481 27 1 0.0629322 0.612961 0.75605 0.451146
630 35 1 0.0629322 0.539137 0.883654 0.478732
471 27 2 -0.0543881 0.598824 0.714039 0.476732
167 10 2 -0.0543881 0.857249 0.641263 0.445104
176 10 1 0.0629322 0.813781 0.628344 0.471824
621 35 2 -0.018412 0.507655 0.983241 0.48297
622 35 2 -0.0543881 0.547323 0.932257 0.495386
175 10 1 0.0629322 0.772159 0.735803 0.446933
472 27 2 -0.018412 0.626154 0.654553 0.470419
475 27 2 -0.0616365 0.67685 0.53498 0.462084
168 10 2 -0.0616365 0.904284 0.597416 0.438486
689 39 2 -0.0543881 0.124142 0.135982 0.512027
691 39 2 -0.0616365 0.112707 0.24715 0.521573
690 39 2 -0.0616365 0.143816 0.193484 0.533839
698 39 1 0.0629322 0.151793 0.0922285 0.518579
663 37 1 0.0622985 0.26878 0.0756924 0.553336
335 19 1 0.0622985 0.210631 0.362916 0.504548
626 35 1 0.0629322 0.491536 0.143373 0.513409
23 2 2 -0.0543881 0.394606 0.269266 0.547786
206 12 2 -0.0543881 0.45876 0.463718 0.542837
699 39 1 0.0622985 0.189312 0.193886 0.554182
700 39 1 0.0622985 0.131782 0.291758 0.538255
880 49 1 0.0622985 0.122218 0.499829 0.55639
703 40 2 -0.0616365 0.921786 0.371991 0.50749
17 1 1 0.0629322 0.799813 0.0852675 0.531748
720 40 1 0.0629322 0.825727 0.348246 0.53412
616 35 2 -0.018412 0.52121 0.0418334 0.506278
615 35 2 -0.0543881 0.572816 0.0488194 0.540275
16 1 1 0.0622985 0.707635 0.150918 0.537481
712 40 2 -0.0543881 0.866012 0.382717 0.536265
28 2 2 -0.0543881 0.565178 0.293614 0.557642
705 40 2 -0.0543881 0.961141 0.474166 0.527901
27 2 2 -0.018412 0.503829 0.289933 0.535314
18 1 1 0.0629322 0.911524 0.0677399 0.544437
8 1 2 -0.0543881 0.805802 0.127004 0.55542
625 35 1 0.0629322 0.587292 0.0965332 0.554977
711 40 2 -0.018412 0.858614 0.44386 0.561885
706 40 2 -0.018412 0.907578 0.486913 0.558919
36 2 1 0.0629322 0.607438 0.307378 0.532669
7 1 2 -0.0616365 0.754808 0.164388 0.56015
704 40 2 -0.0616365 0.968802 0.415931 0.5033
211 12 1 0.0629322 0.256021 0.55022 0.535719
662 37 1 0.0629322 0.303232 0.95882 0.546033
885 50 2 -0.0543881 0.0611259 0.917564 0.509658
896 50 1 0.0629322 0.163607 0.985721 0.550778
202 12 2 -0.018412 0.35257 0.505643 0.53984
886 50 2 -0.018412 0.0614786 0.95309 0.55539
534 30 1 0.0622985 0.275042 0.665411 0.557551
623 35 1 0.0622985 0.634462 0.898792 0.532011
470 27 2 -0.0616365 0.556413 0.724736 0.516921
613 35 2 -0.0616365 0.600455 0.939114 0.526402
485 27 1 0.0629322 0.615623 0.504608 0.525067
614 35 2 -0.0616365 0.611238 0.996011 0.551391
883 50 2 -0.0616365 0.954747 0.885372 0.521485
478 27 2 -0.0543881 0.565369 0.619022 0.543748
480 27 1 0.0622985 0.537436 0.775072 0.525484
469 27 2 -0.0616365 0.536378 0.677228 0.549385
893 50 1 0.0622985 0.915919 0.860548 0.505716
476 27 2 -0.0543881 0.634843 0.545432 0.500853
477 27 2 -0.018412 0.608301 0.606466 0.504331
715 40 1 0.0629322 0.999042 0.508999 0.518742
22 2 2 -0.018412 0.455171 0.274393 0.567637
215 12 1 0.0629322 0.497632 0.440041 0.564183
881 49 1 0.0629322 0.0672295 0.40848 0.596285
207 12 2 -0.018412 0.400003 0.473258 0.568499
664 37 1 0.0622985 0.338163 0.15159 0.601017
654 37 2 -0.0616365 0.315505 0.0569436 0.571741
32 2 1 0.0629322 0.353841 0.258542 0.57365
872 49 2 -0.0543881 0.0652534 0.454957 0.617778
655 37 2 -0.0616365 0.351552 0.101241 0.599268
208 12 2 -0.0543881 0.390352 0.460856 0.621814
657 37 2 -0.018412 0.43112 0.0233978 0.616945
11 1 1 0.0622985 0.0149782 0.101925 0.583597
21 2 2 -0.0543881 0.464112 0.263577 0.624298
656 37 2 -0.0543881 0.411161 0.0861235 0.619036
888 50 2 -0.0616365 0.115652 0.01662 0.621335
15 1 1 0.0622985 0.712978 0.251278 0.59444
710 40 2 -0.0543881 0.80086 0.457213 0.587355
10 1 2 -0.0543881 0.915213 0.112424 0.565288
1 1 2 -0.0616365 0.971599 0.13157 0.588414
6 1 2 -0.0616365 0.756939 0.222542 0.586871
5 1 2 -0.0543881 0.81453 0.244433 0.606403
4 1 2 -0.018412 0.867628 0.206964 0.599116
9 1 2 -0.018412 0.863658 0.148166 0.573367
719 40 1 0.0629322 0.758327 0.423796 0.584083
3 1 2 -0.0543881 0.926585 0.22835 0.616497
2 1 2 -0.0616365 0.979525 0.187796 0.614308
19 2 2 -0.0616365 0.572981 0.281109 0.61201
29 2 1 0.0622985 0.622666 0.280999 0.62308
651 37 2 -0.0543881 0.413953 0.914681 0.593718
871 49 2 -0.0616365 0.0945921 0.504438 0.596546
650 37 2 -0.0616365 0.46934 0.898528 0.617881
653 37 2 -0.0543881 0.336985 0.992653 0.567814
200 12 2 -0.0616365 0.285954 0.507656 0.615564
652 37 2 -0.018412 0.393966 0.978033 0.591411
514 29 2 -0.0543881 0.0231305 0.754693 0.611528
535 30 1 0.0629322 0.227071 0.772944 0.584905
660 37 1 0.0622985 0.483214 0.847596 0.618048
525 30 2 -0.0543881 0.271999 0.753216 0.604108
522 29 1 0.0629322 0.0460219 0.750145 0.573792
891 50 2 -0.018412 0.00788795 0.952433 0.586389
661 37 1 0.0629322 0.383288 0.878826 0.575355
879 49 1 0.0622985 0.121567 0.604624 0.608074
887 50 2 -0.0543881 0.116638 0.985214 0.573973
524 30 2 -0.0616365 0.295175 0.692643 0.591437
521 29 1 0.0629322 0.123957 0.826188 0.614646
870 49 2 -0.0616365 0.0935997 0.562216 0.622038
533 30 1 0.0622985 0.365377 0.620684 0.607545
523 30 2 -0.0616365 0.343648 0.668121 0.618063
201 12 2 -0.0543881 0.294563 0.52315 0.56268
624 35 1 0.0622985 0.656145 0.9991 0.573581
479 27 1 0.0622985 0.50538 0.690707 0.583355
486 27 1 0.0629322 0.553697 0.579977 0.570925
716 40 1 0.0629322 0.93653 0.577209 0.579745
821 46 1 0.0622985 0.754712 0.862675 0.58921
707 40 2 -0.0543881 0.898596 0.542747 0.584792
892 50 2 -0.0543881 0.954724 0.918231 0.569589
813 46 2 -0.0543881 0.723319 0.704992 0.607481
811 46 2 -0.0616365 0.728137 0.817948 0.603876
823 46 1 0.0629322 0.744666 0.65863 0.592783
812 46 2 -0.0616365 0.752905 0.760219 0.592599
505 29 2 -0.0616365 0.969681 0.717227 0.618519
515 29 1 0.0622985 0.950909 0.686856 0.58417
708 40 2 -0.0616365 0.84654 0.556606 0.616352
709 40 2 -0.0616365 0.795391 0.511729 0.615998
900 50 1 0.0629322 0.911399 0.916209 0.596613
822 46 1 0.0622985 0.798068 0.75596 0.568447
31 2 1 0.0629322 0.419267 0.254104 0.651456
665 37 1 0.0629322 0.439039 0.123538 0.641211
679 38 1 0.0629322 0.19259 0.283583 0.656928
873 49 2 -0.018412 0.0282033 0.464181 0.663778
678 38 1 0.0622985 0.13178 0.188155 0.685574
216 12 1 0.0629322 0.425106 0.43312 0.64629
209 12 1 0.0622985 0.319707 0.462959 0.686507
658 37 2 -0.0543881 0.487977 0.00790128 0.645203
12 1 1 0.0622985 0.0292049 0.200269 0.626782
680 38 1 0.0629322 0.217607 0.400892 0.671429
889 50 2 -0.0616365 0.063332 0.0171633 0.650845
897 50 1 0.0622985 0.157801 0.0427791 0.639417
199 12 2 -0.0616365 0.331735 0.476936 0.643588
20 2 2 -0.0616365 0.523967 0.265842 0.64585
666 37 1 0.0629322 0.515448 0.0465938 0.665787
874 49 2 -0.0543881 0.991115 0.415037 0.685863
13 1 1 0.0629322 0.933552 0.276588 0.636388
882 49 1 0.0629322 0.99805 0.364872 0.67039
14 1 1 0.0629322 0.809584 0.289574 0.62859
210 12 1 0.0622985 0.242435 0.527093 0.633456
512 29 2 -0.0543881 0.0971055 0.830148 0.653029
531 30 2 -0.018412 0.352911 0.761508 0.673674
890 50 2 -0.0543881 0.0108328 0.985067 0.635784
536 30 1 0.0629322 0.243178 0.880696 0.645264
526 30 2 -0.018412 0.302667 0.791063 0.64539
513 29 2 -0.018412 0.0426738 0.793414 0.653955
868 49 2 -0.018412 0.0203104 0.52372 0.686731
527 30 2 -0.0543881 0.283573 0.853343 0.661471
869 49 2 -0.0543881 0.0562099 0.571281 0.667823
532 30 2 -0.0543881 0.371403 0.702864 0.659282
878 49 1 0.0629322 0.0537755 0.622466 0.684435
540 30 1 0.0629322 0.409281 0.680876 0.683447
828 46 1 0.0629322 0.655201 0.871932 0.639937
516 29 1 0.0622985 0.884763 0.694979 0.668127
649 37 2 -0.0616365 0.504859 0.943819 0.644379
820 46 2 -0.0543881 0.672313 0.823582 0.632118
816 46 2 -0.0616365 0.583215 0.658064 0.682726
506 29 2 -0.0616365 0.932766 0.721789 0.66336
819 46 2 -0.018412 0.641348 0.769474 0.646181
718 40 1 0.0622985 0.74891 0.518901 0.635271
815 46 2 -0.0543881 0.640514 0.654447 0.654203
824 46 1 0.0629322 0.667437 0.607588 0.645456
818 46 2 -0.0543881 0.581532 0.770372 0.672021
899 50 1 0.0629322 0.97166 0.987144 0.665435
717 40 1 0.0622985 0.839824 0.6016 0.639306
814 46 2 -0.018412 0.668469 0.708231 0.637101
659 37 1 0.0622985 0.550387 0.928845 0.663554
827 46 1 0.0629322 0.555591 0.816351 0.67655
670 38 2 -0.018412 0.149212 0.346897 0.718906
671 38 2 -0.0543881 0.181977 0.40082 0.703154
667 38 2 -0.0616365 0.0861703 0.236448 0.747061
668 38 2 -0.0616365 0.12915 0.234981 0.70798
669 38 2 -0.0543881 0.160188 0.288477 0.693115
119 7 1 0.0622985 0.27101 0.128106 0.745541
898 50 1 0.0622985 0.0644353 0.0435973 0.689639
672 38 2 -0.0616365 0.168348 0.459309 0.728354
126 7 1 0.0629322 0.326735 0.230726 0.729363
125 7 1 0.0629322 0.338973 0.341766 0.749744
30 2 1 0.0622985 0.535087 0.261772 0.688943
88 5 1 0.0622985 0.610149 0.300928 0.74514
865 49 2 -0.0616365 0.948485 0.427849 0.723994
866 49 2 -0.0616365 0.942369 0.48739 0.747601
773 43 1 0.0629322 0.584525 0.15278 0.706079