LAMMPS (29 Aug 2024)
OMP_NUM_THREADS environment is not set. Defaulting to 1 thread. (src/comm.cpp:98)
  using 1 OpenMP thread(s) per MPI task
#-------------------------------------------------------------------------------
# LAMMPS Stage 1:
# Created using Scymol 2023.
#-------------------------------------------------------------------------------
echo                both
#-------------------------------------------------------------------------------
# Substage 1.1: Initialization
# Initialize LAMMPS run.
#-------------------------------------------------------------------------------
units               real
boundary            p p p
atom_style          full
pair_style          lj/cut 12.0
pair_modify         mix arithmetic
bond_style          harmonic
angle_style         harmonic
dihedral_style      fourier
improper_style      cvff
special_bonds       amber
read_data           structure.data
Reading data file ...
  orthogonal box = (0 0 0) to (21.989593 21.989593 2198.9593)
  1 by 1 by 16 MPI processor grid
  reading atoms ...
  900 atoms
  reading velocities ...
  900 velocities
  scanning bonds ...
  2 = max bonds/atom
  scanning angles ...
  3 = max angles/atom
  scanning dihedrals ...
  8 = max dihedrals/atom
  orthogonal box = (0 0 0) to (21.989593 21.989593 2198.9593)
  1 by 1 by 16 MPI processor grid
  reading bonds ...
  950 bonds
  reading angles ...
  1500 angles
  reading dihedrals ...
  2200 dihedrals
Finding 1-2 1-3 1-4 neighbors ...
  special bond factors lj:    0        0        0.5     
  special bond factors coul:  0        0        0.8333333333333334
     3 = max # of 1-2 neighbors
     6 = max # of 1-3 neighbors
    14 = max # of 1-4 neighbors
    15 = max # of special neighbors
  special bonds CPU = 0.001 seconds
  read_data CPU = 0.023 seconds

#-------------------------------------------------------------------------------
# Declaring variables:
#-------------------------------------------------------------------------------
variable            R equal 0.00198722
variable            sysvol equal vol
variable            sysmass equal mass(all)/6.0221367e+023
variable            sysdensity equal v_sysmass/v_sysvol/1.0e-24
variable            coulomb equal ecoul+elong
variable            etotal equal etotal
variable            pe equal pe
variable            ke equal ke
variable            evdwl equal evdwl
variable            epair equal epair
variable            ebond equal ebond
variable            eangle equal eangle
variable            edihed equal edihed
variable            eimp equal eimp
variable            lx equal lx
variable            ly equal ly
variable            lz equal lz
variable            xhi equal xhi
variable            yhi equal yhi
variable            zhi equal zhi
variable            xlo equal xlo
variable            ylo equal ylo
variable            zlo equal zlo
variable            Nthermo equal 0
variable            cella equal lx
variable            cellb equal sqrt(ly*ly+xy*xy)
variable            cellc equal sqrt(lz*lz+xz*xz+yz*yz)
variable            cellalpha equal acos((xy*xz+ly*yz)/(v_cellb*v_cellc))
variable            cellbeta equal acos(xz/v_cellc)
variable            cellgamma equal acos(xy/v_cellb)
variable            p equal press
variable            pxx equal pxx
variable            pyy equal pyy
variable            pzz equal pzz
variable            pyz equal pyz
variable            pxz equal pxz
variable            pxy equal pxy
variable            sxx equal -pxx
variable            syy equal -pyy
variable            szz equal -pzz
variable            syz equal -pyz
variable            sxz equal -pxz
variable            sxy equal -pxy
variable            fmax equal fmax
variable            fnorm equal fnorm
variable            time equal step*dt+0.000001
thermo_style        custom step v_time press vol v_sysdensity temp ebond eangle edihed eimp evdwl ecoul etail elong pe ke
thermo_modify       flush yes
reset_timestep      0
#-------------------------------------------------------------------------------
# Substage 1.2: Minimization
# Initialize LAMMPS run.
#-------------------------------------------------------------------------------
min_style           cg
min_modify          dmax 0.05
thermo_style        custom step fmax fnorm press vol v_sysdensity v_sxx v_syy v_szz v_syz v_sxz v_sxy pe v_cella v_cellb v_cellc v_cellalpha v_cellbeta v_cellgamma
WARNING: New thermo_style command, previous thermo_modify settings will be lost (src/output.cpp:904)
dump                minrun all custom 1000 1.2_minimization.lammpstrj id mol type q xs ys zs
thermo              100
minimize            0.0 0.0 1000 10000

CITE-CITE-CITE-CITE-CITE-CITE-CITE-CITE-CITE-CITE-CITE-CITE-CITE

Your simulation uses code contributions which should be cited:

- Type Label Framework: https://doi.org/10.1021/acs.jpcb.3c08419

@Article{Gissinger24,
 author = {Jacob R. Gissinger, Ilia Nikiforov, Yaser Afshar, Brendon Waters, Moon-ki Choi, Daniel S. Karls, Alexander Stukowski, Wonpil Im, Hendrik Heinz, Axel Kohlmeyer, and Ellad B. Tadmor},
 title = {Type Label Framework for Bonded Force Fields in LAMMPS},
 journal = {J. Phys. Chem. B},
 year =    2024,
 volume =  128,
 number =  13,
 pages =   {3282–-3297}
}

CITE-CITE-CITE-CITE-CITE-CITE-CITE-CITE-CITE-CITE-CITE-CITE-CITE

Generated 1 of 1 mixed pair_coeff terms from arithmetic mixing rule
Neighbor list info ...
  update: every = 1 steps, delay = 0 steps, check = yes
  max neighbors/atom: 2000, page size: 100000
  master list distance cutoff = 14
  ghost atom cutoff = 14
  binsize = 7, bins = 4 4 315
  1 neighbor lists, perpetual/occasional/extra = 1 0 0
  (1) pair lj/cut, perpetual
      attributes: half, newton on
      pair build: half/bin/newton
      stencil: half/bin/3d
      bin: standard
Per MPI rank memory allocation (min/avg/max) = 11.52 | 11.52 | 11.53 Mbytes
   Step          Fmax          Fnorm          Press          Volume      v_sysdensity      v_sxx          v_syy          v_szz          v_syz          v_sxz          v_sxy          PotEng        v_cella        v_cellb        v_cellc      v_cellalpha     v_cellbeta    v_cellgamma  
         0   54.773347      1098.6475     -948.35237      1063289.6      0.010007691    931.6303       1090.5357      822.8911       57.987124      30.392668      15.618351      1451.013       21.989593      21.989593      2198.9593      1.5707963      1.5707963      1.5707963    
       100   3.1894008e-10  1.8086051e-09  1.2652612e-10  1063289.6      0.010007691   -8.9424576e-11 -8.7988666e-11 -2.0216511e-10 -4.0880791e-11  8.1800881e-12  3.403226e-12   581.12836      21.989593      21.989593      2198.9593      1.5707963      1.5707963      1.5707963    
       200   3.1478494e-10  1.7819423e-09  4.1978406e-11  1063289.6      0.010007691   -2.1274601e-11 -1.3698531e-11 -9.0962086e-11 -3.8547936e-12  3.484744e-12  -4.4872317e-12  581.12836      21.989593      21.989593      2198.9593      1.5707963      1.5707963      1.5707963    
       300   3.1478494e-10  1.7805302e-09  4.0733099e-11  1063289.6      0.010007691   -2.1096129e-11 -1.3415072e-11 -8.7688096e-11 -1.2025707e-12  3.0243738e-12 -3.7617738e-12  581.12836      21.989593      21.989593      2198.9593      1.5707963      1.5707963      1.5707963    
       400   3.1478494e-10  1.780244e-09   4.1122636e-11  1063289.6      0.010007691   -2.1479878e-11 -1.3392219e-11 -8.849581e-11  -1.4577568e-12  2.8572281e-12 -3.7388634e-12  581.12836      21.989593      21.989593      2198.9593      1.5707963      1.5707963      1.5707963    
       500   3.1478494e-10  1.7802968e-09  4.065018e-11   1063289.6      0.010007691   -2.08991e-11   -1.3222854e-11 -8.7828587e-11 -1.3878228e-12  2.8370526e-12 -3.8206535e-12  581.12836      21.989593      21.989593      2198.9593      1.5707963      1.5707963      1.5707963    
       600   3.1478494e-10  1.7802741e-09  4.0541638e-11  1063289.6      0.010007691   -2.087848e-11  -1.3198168e-11 -8.7548264e-11 -1.4971054e-12  2.694421e-12  -3.704956e-12   581.12836      21.989593      21.989593      2198.9593      1.5707963      1.5707963      1.5707963    
       700   3.1478494e-10  1.7803495e-09  4.0970721e-11  1063289.6      0.010007691   -2.1477358e-11 -1.3204583e-11 -8.8230221e-11 -1.5266312e-12  2.7620067e-12 -3.8519262e-12  581.12836      21.989593      21.989593      2198.9593      1.5707963      1.5707963      1.5707963    
       800   3.1478494e-10  1.7803828e-09  4.0751769e-11  1063289.6      0.010007691   -2.1171963e-11 -1.3231961e-11 -8.7851383e-11 -1.4230475e-12  2.7186201e-12 -3.8700254e-12  581.12836      21.989593      21.989593      2198.9593      1.5707963      1.5707963      1.5707963    
       900   3.1478494e-10  1.7802456e-09  4.0332714e-11  1063289.6      0.010007691   -2.0789359e-11 -1.30705e-11   -8.7138282e-11 -1.4770015e-12  2.7698535e-12 -3.6657792e-12  581.12836      21.989593      21.989593      2198.9593      1.5707963      1.5707963      1.5707963    
      1000   3.1478494e-10  1.7803348e-09  4.0766866e-11  1063289.6      0.010007691   -2.1458801e-11 -1.3017176e-11 -8.7824621e-11 -1.5507444e-12  2.7613624e-12 -3.8907594e-12  581.12836      21.989593      21.989593      2198.9593      1.5707963      1.5707963      1.5707963    
Loop time of 0.0717179 on 16 procs for 1000 steps with 900 atoms

99.6% CPU use with 16 MPI tasks x 1 OpenMP threads

Minimization stats:
  Stopping criterion = max iterations
  Energy initial, next-to-last, final = 
      1451.01303686359    581.12836171644    581.12836171644
  Force two-norm initial, final = 1098.6475 1.7803348e-09
  Force max component initial, final = 54.773347 3.1478494e-10
  Final line search alpha, max atom move = 1 3.1478494e-10
  Iterations, force evaluations = 1000 2000

MPI task timing breakdown:
Section |  min time  |  avg time  |  max time  |%varavg| %total
---------------------------------------------------------------
Pair    | 0.0057126  | 0.0090178  | 0.011543   |   1.8 | 12.57
Bond    | 0.013177   | 0.020572   | 0.029184   |   2.8 | 28.68
Neigh   | 0          | 0          | 0          |   0.0 |  0.00
Comm    | 0.0058492  | 0.013403   | 0.02277    |   4.6 | 18.69
Output  | 0.00089269 | 0.00092899 | 0.0010116  |   0.0 |  1.30
Modify  | 0          | 0          | 0          |   0.0 |  0.00
Other   |            | 0.0278     |            |       | 38.76

Nlocal:          56.25 ave          79 max          36 min
Histogram: 2 0 0 0 10 1 0 0 2 1
Nghost:        322.125 ave         425 max         243 min
Histogram: 1 1 3 2 1 6 1 0 0 1
Neighs:            325 ave         422 max         208 min
Histogram: 2 0 0 0 8 1 1 1 0 3

Total # of neighbors = 5200
Ave neighs/atom = 5.7777778
Ave special neighs/atom = 9.6666667
Neighbor list builds = 0
Dangerous builds = 0
undump              minrun
#-------------------------------------------------------------------------------
# Substage 1.3: Velocities
# Initialize velocities to 298.15 (seed 1234) using a gaussian distribution.
#-------------------------------------------------------------------------------
velocity            all create 298.15 1234 dist gaussian mom yes rot no
reset_timestep      0
#-------------------------------------------------------------------------------
# Substage 1.4: NVT-dynamics
# Run 5000 steps with a timestep of 1.0. T from 298.15 to 298.15.
#-------------------------------------------------------------------------------
thermo_style        custom step v_time press vol v_sysdensity temp ebond eangle edihed eimp evdwl ecoul etail elong pe ke
fix                 1 all nvt temp 298.15 298.15 100 drag 1 nreset 1000 mtk yes
fix                 2 all ave/time 1 999 1000 v_time c_thermo_temp c_thermo_press v_sysvol v_sysdensity v_cella v_cellb v_cellc v_etotal v_pe v_ke v_evdwl v_coulomb v_sxx v_syy v_szz v_syz v_sxz v_sxy v_xhi v_yhi v_zhi v_xlo v_ylo v_zlo file 1.4_nvt_instantaneous.out
dump                1 all custom 1000 1.4_nvt.lammpstrj id mol type q xs ys zs
timestep            1.0
run                 5000
Generated 1 of 1 mixed pair_coeff terms from arithmetic mixing rule
Per MPI rank memory allocation (min/avg/max) = 10.39 | 10.4 | 10.4 Mbytes
   Step         v_time         Press          Volume      v_sysdensity       Temp          E_bond        E_angle        E_dihed        E_impro         E_vdwl         E_coul         E_tail         E_long         PotEng         KinEng    
         0   1e-06          34.348683      1063289.6      0.010007691    298.15         41.099777      48.844595      1.1635581e-12  0              491.18399      0              0              0              581.12836      798.96694    
       100   100            35.018656      1063289.6      0.010007691    176.78454      224.67166      145.86879      106.90456      0              508.17191      0              0              0              985.61692      473.73807    
       200   200           -60.152608      1063289.6      0.010007691    184.38336      235.56659      171.27525      155.64875      0              479.60668      0              0              0              1042.0973      494.10097    
       300   300            59.512183      1063289.6      0.010007691    229.06963      169.65769      173.57381      121.90407      0              529.9374       0              0              0              995.07296      613.84895    
       400   400           -58.859414      1063289.6      0.010007691    187.89571      324.51729      181.27359      200.18441      0              482.36317      0              0              0              1188.3385      503.51319    
       500   500            44.989915      1063289.6      0.010007691    244.42214      206.78921      185.20904      181.77465      0              522.45766      0              0              0              1096.2305      654.98979    
       600   600           -38.65228       1063289.6      0.010007691    280.07126      255.18275      193.37853      125.72977      0              489.50399      0              0              0              1063.795       750.52046    
       700   700            13.94881       1063289.6      0.010007691    250.93251      289.90711      215.78059      176.40308      0              512.09035      0              0              0              1194.1811      672.43596    
       800   800           -5.5550155      1063289.6      0.010007691    307.03798      221.34388      201.59072      159.20776      0              495.46334      0              0              0              1077.6057      822.7845     
       900   900            8.1382883      1063289.6      0.010007691    292.07025      290.87223      197.31947      160.2511       0              506.84968      0              0              0              1155.2925      782.67474    
      1000   1000           28.844769      1063289.6      0.010007691    303.51257      223.90917      217.09657      187.92479      0              510.53137      0              0              0              1139.4619      813.33728    
      1100   1100          -12.419755      1063289.6      0.010007691    327.01353      254.21988      180.93858      162.61144      0              489.15546      0              0              0              1086.9253      876.31392    
      1200   1200           31.551839      1063289.6      0.010007691    285.05628      289.98448      197.84005      202.36211      0              518.09298      0              0              0              1208.2796      763.87906    
      1300   1300          -20.485114      1063289.6      0.010007691    307.73527      252.17888      200.26579      198.92189      0              490.20509      0              0              0              1141.5717      824.65303    
      1400   1400           49.94558       1063289.6      0.010007691    302.76385      288.03393      181.9209       175.2546       0              513.77552      0              0              0              1158.9849      811.3309     
      1500   1500          -40.945903      1063289.6      0.010007691    293.41976      301.81926      208.13082      179.90372      0              493.14097      0              0              0              1182.9948      786.29109    
      1600   1600           25.383262      1063289.6      0.010007691    308.80755      231.30016      209.11967      183.45942      0              514.80346      0              0              0              1138.6827      827.52648    
      1700   1700          -7.6219625      1063289.6      0.010007691    288.9065       310.16055      210.45654      179.80397      0              495.09352      0              0              0              1195.5146      774.19669    
      1800   1800           12.066992      1063289.6      0.010007691    282.24067      267.26238      233.79357      196.98097      0              512.91507      0              0              0              1210.952       756.33393    
      1900   1900           3.0918017      1063289.6      0.010007691    295.78357      265.8446       214.82561      184.48598      0              508.30864      0              0              0              1173.4648      792.6255     
      2000   2000           9.7831786      1063289.6      0.010007691    295.9391       281.92727      209.35344      182.09899      0              502.43203      0              0              0              1175.8117      793.04229    
      2100   2100           5.0486991      1063289.6      0.010007691    296.12849      257.5289       227.6925       183.84797      0              504.57304      0              0              0              1173.6424      793.54981    
      2200   2200           1.4144627      1063289.6      0.010007691    313.12067      253.43261      211.13387      163.42745      0              501.36915      0              0              0              1129.3631      839.08457    
      2300   2300           3.1129916      1063289.6      0.010007691    300.25456      284.02478      204.07176      175.41555      0              501.02122      0              0              0              1164.5333      804.60662    
      2400   2400           1.9003483      1063289.6      0.010007691    293.27034      262.03079      225.66404      188.01496      0              505.24044      0              0              0              1180.9502      785.89067    
      2500   2500           19.916421      1063289.6      0.010007691    306.28913      258.42974      196.83234      184.20161      0              507.37739      0              0              0              1146.8411      820.77776    
      2600   2600           1.2318956      1063289.6      0.010007691    289.9656       271.71964      212.03761      203.03022      0              503.7514       0              0              0              1190.5389      777.03479    
      2700   2700           6.2527681      1063289.6      0.010007691    297.5786       261.67866      196.28564      207.26313      0              504.55952      0              0              0              1169.7869      797.43572    
      2800   2800          -4.8917326      1063289.6      0.010007691    301.00066      295.46523      195.05896      173.0595       0              498.40847      0              0              0              1161.9922      806.606      
      2900   2900           33.681713      1063289.6      0.010007691    292.04392      265.84468      208.38006      195.09438      0              516.71317      0              0              0              1186.0323      782.60417    
      3000   3000          -44.714037      1063289.6      0.010007691    284.58451      303.41226      216.93496      191.96829      0              493.1047       0              0              0              1205.4202      762.61484    
      3100   3100           43.400194      1063289.6      0.010007691    300.26628      258.4692       208.6207       179.25036      0              517.92276      0              0              0              1164.263       804.63804    
      3200   3200          -20.353646      1063289.6      0.010007691    291.13101      285.96147      210.13674      197.40824      0              494.24657      0              0              0              1187.753       780.1578     
      3300   3300           28.974464      1063289.6      0.010007691    301.26889      243.73247      205.79228      195.12295      0              515.30492      0              0              0              1159.9526      807.32479    
      3400   3400          -34.20776       1063289.6      0.010007691    295.75433      281.06579      207.9188       193.39288      0              493.606        0              0              0              1175.9835      792.54715    
      3500   3500           30.523733      1063289.6      0.010007691    297.24001      245.43822      216.98805      195.10535      0              513.02696      0              0              0              1170.5586      796.52839    
      3600   3600           2.5799832      1063289.6      0.010007691    303.24744      272.53999      193.83398      187.07589      0              501.78762      0              0              0              1155.2375      812.62678    
      3700   3700          -14.493826      1063289.6      0.010007691    292.40186      275.24673      216.74003      190.72885      0              501.65718      0              0              0              1184.3728      783.56336    
      3800   3800           30.285632      1063289.6      0.010007691    303.71327      269.2005       195.55422      173.60425      0              515.39293      0              0              0              1153.7519      813.8751     
      3900   3900          -28.984766      1063289.6      0.010007691    291.50543      291.9319       216.05312      189.11881      0              490.43905      0              0              0              1187.5429      781.16115    
      4000   4000           38.575136      1063289.6      0.010007691    289.85488      249.88605      219.54033      198.41907      0              522.84108      0              0              0              1190.6865      776.7381     
      4100   4100          -45.950772      1063289.6      0.010007691    292.75835      307.55302      201.40441      187.24554      0              487.49662      0              0              0              1183.6996      784.51866    
      4200   4200           50.300376      1063289.6      0.010007691    294.22536      248.1322       210.04574      200.00493      0              521.58704      0              0              0              1179.7699      788.44989    
      4300   4300          -27.53117       1063289.6      0.010007691    300.32722      276.97977      197.60185      195.61339      0              491.93096      0              0              0              1162.126       804.80132    
      4400   4400           28.454103      1063289.6      0.010007691    307.44521      264.58062      189.31834      175.39567      0              514.22713      0              0              0              1143.5218      823.87575    
      4500   4500          -2.5398318      1063289.6      0.010007691    305.10892      274.95794      201.82109      174.91399      0              497.89404      0              0              0              1149.5871      817.6151     
      4600   4600          -10.985122      1063289.6      0.010007691    292.75786      280.8374       209.99662      189.70562      0              502.49415      0              0              0              1183.0338      784.51735    
      4700   4700           24.83853       1063289.6      0.010007691    293.58225      285.61711      199.43945      186.46994      0              509.96931      0              0              0              1181.4958      786.7265     
      4800   4800          -0.39242369     1063289.6      0.010007691    297.71597      269.82707      221.29283      180.04044      0              498.7588       0              0              0              1169.9191      797.80384    
      4900   4900           8.5684471      1063289.6      0.010007691    299.93382      265.65878      202.6846       182.61474      0              512.88622      0              0              0              1163.8443      803.74712    
      5000   5000          -28.632933      1063289.6      0.010007691    293.38465      270.62799      220.86112      198.44184      0              491.11369      0              0              0              1181.0446      786.197      
Loop time of 0.388666 on 16 procs for 5000 steps with 900 atoms

Performance: 1111.494 ns/day, 0.022 hours/ns, 12864.520 timesteps/s, 11.578 Matom-step/s
98.4% CPU use with 16 MPI tasks x 1 OpenMP threads

MPI task timing breakdown:
Section |  min time  |  avg time  |  max time  |%varavg| %total
---------------------------------------------------------------
Pair    | 0.017506   | 0.027044   | 0.038155   |   3.1 |  6.96
Bond    | 0.037154   | 0.057604   | 0.088664   |   5.3 | 14.82
Neigh   | 0.0051391  | 0.0056638  | 0.006199   |   0.4 |  1.46
Comm    | 0.014685   | 0.037119   | 0.069886   |   8.8 |  9.55
Output  | 0.0025155  | 0.0027855  | 0.0031988  |   0.4 |  0.72
Modify  | 0.21067    | 0.24513    | 0.27511    |   3.8 | 63.07
Other   |            | 0.01332    |            |       |  3.43

Nlocal:          56.25 ave          90 max          36 min
Histogram: 5 0 0 5 0 1 4 0 0 1
Nghost:        323.812 ave         417 max         254 min
Histogram: 3 2 0 2 2 3 2 0 0 2
Neighs:        375.688 ave         608 max         208 min
Histogram: 3 0 4 1 2 3 0 0 0 3

Total # of neighbors = 6011
Ave neighs/atom = 6.6788889
Ave special neighs/atom = 9.6666667
Neighbor list builds = 95
Dangerous builds = 0
unfix               1
unfix               2
undump              1
reset_timestep      0
#-------------------------------------------------------------------------------
# Substage 1.5: Uniaxial compression dynamics
# Uniaxial compression in the z axis for 100000 steps with a timestep of 1.0.
# Temperature control from 298.15 to 298.15 K. Deformation applied every 1000
# steps, with an t strain equal to: XX)
#-------------------------------------------------------------------------------
variable            strainrate equal ln((lx+4.0)/lz)/100000.0
variable            strainrateconst equal ${strainrate}
variable            strainrateconst equal -4.43804328967088e-05
thermo_style        custom step v_time press vol v_sysdensity temp ebond eangle edihed eimp evdwl ecoul etail elong pe ke
fix                 1 all nvt temp 298.15 298.15 100 drag 1 nreset 1000 mtk yes
fix                 2 all ave/time 1 999 1000 v_time c_thermo_temp c_thermo_press v_sysvol v_sysdensity v_cella v_cellb v_cellc v_etotal v_pe v_ke v_evdwl v_coulomb v_sxx v_syy v_szz v_syz v_sxz v_sxy v_xhi v_yhi v_zhi v_xlo v_ylo v_zlo file 1.5_uniaxialcompression_instantaneous.out
variable            wzhigh equal "v_zhi - 2.0"
variable            wzlow equal "v_zlo + 2.0"
fix                 upperW all indent 10 plane z v_wzhigh hi units box
fix                 lowerW all indent 10 plane z v_wzlow lo units box
fix                 dfrm all deform 1000 z trate ${strainrate} units box remap x
fix                 dfrm all deform 1000 z trate -4.43804328967088e-05 units box remap x
dump                1 all custom 1000 1.5_uniaxialcompression.lammpstrj id mol type q xs ys zs
timestep            1.0
run                 100000
Generated 1 of 1 mixed pair_coeff terms from arithmetic mixing rule
Per MPI rank memory allocation (min/avg/max) = 10.39 | 10.43 | 10.86 Mbytes
   Step         v_time         Press          Volume      v_sysdensity       Temp          E_bond        E_angle        E_dihed        E_impro         E_vdwl         E_coul         E_tail         E_long         PotEng         KinEng    
         0   1e-06         -28.632933      1063289.6      0.010007691    293.38465      270.62799      220.86112      198.44184      0              491.11369      0              0              0              1181.0446      786.197      
       100   100            56.68306       1063289.6      0.010007691    292.85139      267.03029      226.53635      171.68881      0              518.21406      0              0              0              1183.4695      784.76799    
       200   200           -25.313959      1063289.6      0.010007691    300.85122      271.31537      217.66727      176.19007      0              496.0089       0              0              0              1161.1816      806.20553    
       300   300           -5.805044       1063289.6      0.010007691    289.14178      275.32427      216.10203      188.9059       0              513.32735      0              0              0              1193.6596      774.82716    
       400   400            17.048086      1063289.6      0.010007691    309.44206      262.44085      199.60713      176.27638      0              498.66983      0              0              0              1136.9942      829.22683    
       500   500            32.834204      1063289.6      0.010007691    290.98006      283.1819       210.27361      182.67194      0              512.64367      0              0              0              1188.7711      779.7533     
       600   600           -28.231673      1063289.6      0.010007691    299.40436      275.25495      207.83118      186.35907      0              495.7101       0              0              0              1165.1553      802.32831    
       700   700            2.1177888      1063289.6      0.010007691    304.66232      259.16493      211.94995      173.99787      0              505.5901       0              0              0              1150.7028      816.41832    
       800   800            25.875354      1063289.6      0.010007691    299.29149      273.83235      195.72897      192.71523      0              504.42122      0              0              0              1166.6978      802.02584    
       900   900            6.9838902      1063289.6      0.010007691    296.89543      262.5241       215.80434      189.28282      0              504.5682       0              0              0              1172.1795      795.60501    
      1000   1000          -4.5281882      1017132.2      0.01046184     306.61692      260.73581      205.26857      174.29178      0              505.71014      0              0              0              1146.0063      821.65615    
      1100   1100          -304.04663      1017132.2      0.01046184     318.16896      473.15111      243.26575      175.09602      0              413.47963      0              0              0              1304.9925      852.61272    
      1200   1200           138.38042      1017132.2      0.01046184     299.87002      246.42126      271.12104      183.73387      0              598.92051      0              0              0              1300.1967      803.57614    
      1300   1300          -97.776794      1017132.2      0.01046184     315.38792      391.42716      223.95733      164.90376      0              442.80171      0              0              0              1223.0899      845.16023    
      1400   1400           152.75977      1017132.2      0.01046184     302.21928      237.36832      224.63612      209.0652       0              558.21054      0              0              0              1229.2802      809.87158    
      1500   1500          -103.97403      1017132.2      0.01046184     309.37442      314.59101      218.82811      180.09163      0              483.31576      0              0              0              1196.8265      829.04556    
      1600   1600           1.4828126      1017132.2      0.01046184     307.42494      291.33482      228.28981      172.84332      0              502.80053      0              0              0              1195.2685      823.82145    
      1700   1700           97.380836      1017132.2      0.01046184     299.64977      271.48188      214.43384      195.37526      0              532.94971      0              0              0              1214.2407      802.98593    
      1800   1800          -129.51551      1017132.2      0.01046184     307.27892      340.46111      229.90709      159.80495      0              464.17768      0              0              0              1194.3508      823.43013    
      1900   1900           178.11527      1017132.2      0.01046184     302.91401      242.35919      222.61223      169.28386      0              572.91203      0              0              0              1207.1673      811.73328    
      2000   2000          -202.55974      972978.44      0.010936598    296.19425      403.77795      211.0753       176.68531      0              432.82415      0              0              0              1224.3627      793.72601    
      2100   2100          -90.829441      972978.44      0.010936598    320.43161      363.50752      245.74803      167.19864      0              501.21266      0              0              0              1277.6668      858.67603    
      2200   2200          -59.226342      972978.44      0.010936598    313.77278      319.43484      257.96683      163.39316      0              512.93624      0              0              0              1253.7311      840.83207    
      2300   2300           97.913306      972978.44      0.010936598    302.98808      332.94071      244.73097      167.12934      0              515.72321      0              0              0              1260.5242      811.93178    
      2400   2400          -58.177935      972978.44      0.010936598    301.10435      361.80553      231.45751      168.37458      0              486.87429      0              0              0              1248.5119      806.88385    
      2500   2500           75.242745      972978.44      0.010936598    306.16327      265.36423      236.99942      173.4472       0              550.84382      0              0              0              1226.6547      820.44048    
      2600   2600          -108.82535      972978.44      0.010936598    290.82052      413.99329      221.88368      167.96934      0              463.74242      0              0              0              1267.5887      779.32577    
      2700   2700           141.49869      972978.44      0.010936598    301.17831      265.24747      236.3458       173.96647      0              562.71352      0              0              0              1238.2733      807.08204    
      2800   2800          -143.41982      972978.44      0.010936598    301.20307      370.33422      240.08698      165.61767      0              462.39545      0              0              0              1238.4343      807.14839    
      2900   2900           174.83715      972978.44      0.010936598    296.50227      286.26488      232.48649      170.7531       0              563.35332      0              0              0              1252.8578      794.55143    
      3000   3000          -156.47397      930741.42      0.0114329      303.81905      395.66118      216.22947      158.95481      0              461.12914      0              0              0              1231.9746      814.15857    
      3100   3100          -258.05501      930741.42      0.0114329      298.40301      481.74968      254.61322      175.81589      0              461.44935      0              0              0              1373.6281      799.64493    
      3200   3200           91.392813      930741.42      0.0114329      295.21852      312.45433      266.49538      179.96086      0              578.27869      0              0              0              1337.1893      791.11131    
      3300   3300          -58.385275      930741.42      0.0114329      299.77982      421.69769      257.43515      159.86898      0              460.56277      0              0              0              1299.5646      803.33445    
      3400   3400           104.10209      930741.42      0.0114329      286.33666      315.03814      244.67054      196.79699      0              560.60599      0              0              0              1317.1117      767.31016    
      3500   3500          -129.22272      930741.42      0.0114329      298.75438      367.55083      235.45487      190.35006      0              479.60403      0              0              0              1272.9598      800.58652    
      3600   3600           88.963243      930741.42      0.0114329      312.72086      321.09587      214.92294      172.01311      0              526.01209      0              0              0              1234.044       838.01318    
      3700   3700          -9.2130857      930741.42      0.0114329      312.86354      313.495        230.71095      181.03844      0              506.80523      0              0              0              1232.0496      838.39551    
      3800   3800          -47.592046      930741.42      0.0114329      305.64169      337.87496      235.80049      182.44367      0              496.82425      0              0              0              1252.9434      819.04279    
      3900   3900           94.136023      930741.42      0.0114329      309.82508      303.85864      237.29884      164.74048      0              535.23538      0              0              0              1241.1333      830.25322    
      4000   4000          -100.82778      890337.91      0.011951725    296.80944      370.40233      245.51121      182.02969      0              478.06875      0              0              0              1276.012       795.37457    
      4100   4100          -287.89646      890337.91      0.011951725    323.61828      507.83528      256.3638       175.11493      0              453.13618      0              0              0              1392.4502      867.21551    
      4200   4200           52.163757      890337.91      0.011951725    315.75817      331.68226      281.51171      175.10476      0              568.19083      0              0              0              1356.4896      846.1524     
      4300   4300           20.514361      890337.91      0.011951725    324.49439      411.17998      256.01005      143.34654      0              485.37379      0              0              0              1295.9104      869.56327    
      4400   4400           8.4675731      890337.91      0.011951725    306.75627      354.1283       239.58675      193.09374      0              523.43268      0              0              0              1310.2415      822.02958    
      4500   4500          -16.243379      890337.91      0.011951725    310.79708      359.46243      220.25421      172.58108      0              531.06666      0              0              0              1283.3644      832.85793    
      4600   4600          -57.336205      890337.91      0.011951725    299.47177      406.91381      231.61781      181.77908      0              482.05636      0              0              0              1302.3671      802.50894    
      4700   4700           145.46172      890337.91      0.011951725    304.9914       318.14185      220.41354      183.37618      0              560.78285      0              0              0              1282.7144      817.30016    
      4800   4800          -200.65731      890337.91      0.011951725    298.70679      432.75928      245.85455      169.98687      0              450.33399      0              0              0              1298.9347      800.459      
      4900   4900           249.97292      890337.91      0.011951725    305.60609      281.07829      238.21691      165.35434      0              592.61252      0              0              0              1277.2621      818.94738    
      5000   5000          -257.55591      851688.31      0.012494094    291.34852      483.75019      239.19453      165.60191      0              427.2809       0              0              0              1315.8275      780.74069    
      5100   5100          -121.09108      851688.31      0.012494094    314.85113      399.80116      256.85784      166.22755      0              507.39399      0              0              0              1330.2805      843.72177    
      5200   5200          -79.726467      851688.31      0.012494094    300.79056      377.03377      258.75958      182.72631      0              513.82759      0              0              0              1332.3473      806.04298    
      5300   5300           101.12117      851688.31      0.012494094    306.37908      390.07895      251.1267       155.46279      0              505.03274      0              0              0              1301.7012      821.0188     
      5400   5400          -0.29815405     851688.31      0.012494094    299.72842      359.7465       253.23996      172.77959      0              519.15113      0              0              0              1304.9172      803.1967     
      5500   5500          -89.158483      851688.31      0.012494094    300.04713      383.20339      235.68457      177.19313      0              505.58042      0              0              0              1301.6615      804.05077    
      5600   5600           47.309655      851688.31      0.012494094    291.60173      391.45241      250.95804      165.90267      0              516.31429      0              0              0              1324.6274      781.41923    
      5700   5700           18.397947      851688.31      0.012494094    310.47731      354.31613      240.13293      160.19585      0              517.92501      0              0              0              1272.5699      832.00102    
      5800   5800          -62.546429      851688.31      0.012494094    283.32721      399.85624      264.73756      180.60213      0              502.92313      0              0              0              1348.1191      759.2456     
      5900   5900           85.421884      851688.31      0.012494094    290.84132      357.49167      280.03972      160.24599      0              532.32459      0              0              0              1330.102       779.38152    
      6000   6000          -53.34422       814716.5       0.013061075    304.16023      383.0302       249.13792      163.08178      0              497.54805      0              0              0              1292.798       815.07283    
      6100   6100          -407.9248       814716.5       0.013061075    318.29378      598.08544      256.98205      168.73816      0              433.95133      0              0              0              1457.757       852.94719    
      6200   6200           175.87062      814716.5       0.013061075    311.77252      317.49207      262.78534      240.20704      0              589.68572      0              0              0              1410.1702      835.47185    
      6300   6300          -75.220004      814716.5       0.013061075    315.86034      499.30066      259.28484      147.28263      0              455.57239      0              0              0              1361.4405      846.42619    
      6400   6400           104.90385      814716.5       0.013061075    293.96398      376.461        265.78501      179.50222      0              563.45058      0              0              0              1385.1988      787.74946    
      6500   6500          -149.0016       814716.5       0.013061075    307.09503      414.60094      260.11887      159.14273      0              491.79542      0              0              0              1325.658       822.93737    
      6600   6600           81.822979      814716.5       0.013061075    300.99002      397.41542      232.45154      187.42015      0              514.50413      0              0              0              1331.7912      806.57747    
      6700   6700           57.727349      814716.5       0.013061075    319.76412      351.93127      223.0549       169.75523      0              529.40151      0              0              0              1274.1429      856.88735    
      6800   6800          -138.17708      814716.5       0.013061075    321.55775      374.05029      256.03223      161.22099      0              476.33652      0              0              0              1267.64        861.69382    
      6900   6900           184.29015      814716.5       0.013061075    299.13047      334.41323      263.08813      172.3962       0              557.90324      0              0              0              1327.8008      801.59434    
      7000   7000          -223.59508      779349.63      0.013653787    297.76386      447.18604      248.92943      186.66646      0              445.61182      0              0              0              1328.3938      797.93219    
      7100   7100          -172.96959      779349.63      0.013653787    326.53604      481.8546       280.82183      169.9416       0              483.85376      0              0              0              1416.4718      875.03438    
      7200   7200          -54.220855      779349.63      0.013653787    314.70849      390.1427       314.73223      154.28788      0              533.35496      0              0              0              1392.5178      843.33951    
      7300   7300           83.258421      779349.63      0.013653787    323.46047      403.57578      268.32875      162.68567      0              496.92982      0              0              0              1331.52        866.79264    
      7400   7400           14.592422      779349.63      0.013653787    301.36092      399.46634      261.69411      191.79785      0              506.74395      0              0              0              1359.7023      807.57138    
      7500   7500           10.003387      779349.63      0.013653787    307.99966      356.52585      250.06782      186.51684      0              528.84887      0              0              0              1321.9594      825.36155    
      7600   7600          -100.05539      779349.63      0.013653787    283.88206      467.8277       278.73158      156.35063      0              473.92392      0              0              0              1376.8338      760.73245    
      7700   7700           169.7177       779349.63      0.013653787    300.71146      344.39699      257.31676      172.48788      0              547.85462      0              0              0              1322.0562      805.83101    
      7800   7800          -150.47197      779349.63      0.013653787    308.12953      421.74078      265.24111      153.80785      0              458.8538       0              0              0              1299.6435      825.70957    
      7900   7900           195.84661      779349.63      0.013653787    298.17745      335.21575      274.18303      156.78569      0              560.34861      0              0              0              1326.5331      799.04049    
      8000   8000          -237.36056      745518.04      0.014273395    282.52967      474.77246      260.81494      191.73154      0              441.1718       0              0              0              1368.4907      757.10838    
      8100   8100          -229.41316      745518.04      0.014273395    320.78756      485.26631      276.47433      185.98301      0              466.93895      0              0              0              1414.6626      859.6299     
      8200   8200           85.640479      745518.04      0.014273395    312.69234      349.90121      296.17703      184.55665      0              556.38283      0              0              0              1387.0177      837.93674    
      8300   8300          -33.836694      745518.04      0.014273395    327.16016      432.59829      273.51386      143.61451      0              466.4415       0              0              0              1316.1682      876.70686    
      8400   8400           68.174797      745518.04      0.014273395    310.14753      346.36415      280.92872      179.52745      0              524.33593      0              0              0              1331.1562      831.11729    
      8500   8500          -57.849915      745518.04      0.014273395    309.85482      410.40026      247.72767      161.64759      0              500.50363      0              0              0              1320.2792      830.3329     
      8600   8600          -1.7231341      745518.04      0.014273395    310.26206      375.08998      252.29432      177.68607      0              504.91994      0              0              0              1309.9903      831.4242     
      8700   8700           35.420658      745518.04      0.014273395    315.29321      370.52673      230.99228      175.591        0              518.74199      0              0              0              1295.852       844.90643    
      8800   8800          -86.68155       745518.04      0.014273395    308.10664      405.49737      248.60616      180.52407      0              481.84643      0              0              0              1316.474       825.64822    
      8900   8900           146.72113      745518.04      0.014273395    306.71752      345.97227      263.67809      168.58007      0              545.0674       0              0              0              1323.2978      821.92572    
      9000   9000          -187.506        713155.08      0.014921122    298.25447      435.64573      260.60315      174.50825      0              474.84585      0              0              0              1345.603       799.24689    
      9100   9100          -334.69952      713155.08      0.014921122    305.19367      558.52076      283.8684       156.10576      0              457.40136      0              0              0              1455.8963      817.8422     
      9200   9200           100.86496      713155.08      0.014921122    308.189        403.6766       273.3801       161.23376      0              561.7626       0              0              0              1400.0531      825.86893    
      9300   9300          -11.501074      713155.08      0.014921122    311.31745      450.86919      277.78565      158.13495      0              474.43015      0              0              0              1361.2199      834.25238    
      9400   9400           16.11267       713155.08      0.014921122    295.37967      387.83992      259.5996       206.16626      0              523.612        0              0              0              1377.2178      791.54316    
      9500   9500          -53.248295      713155.08      0.014921122    318.40516      368.64783      253.20654      173.86066      0              505.37447      0              0              0              1301.0895      853.24566    
      9600   9600           13.296939      713155.08      0.014921122    302.75822      413.58157      258.93272      162.75471      0              501.04192      0              0              0              1336.3109      811.31581    
      9700   9700           92.364311      713155.08      0.014921122    311.29935      361.55456      240.24614      178.08311      0              530.06982      0              0              0              1309.9536      834.20389    
      9800   9800          -154.32126      713155.08      0.014921122    297.3019       438.22195      273.37956      170.70003      0              467.92405      0              0              0              1350.2256      796.69423    
      9900   9900           177.67213      713155.08      0.014921122    311.92442      345.83851      242.51589      172.54039      0              547.38826      0              0              0              1308.283       835.87891    
     10000   10000         -225.43113      682196.99      0.015598242    297.91112      465.15281      266.21105      165.40276      0              448.41259      0              0              0              1345.1792      798.3268     
     10100   10100         -228.60744      682196.99      0.015598242    320.82702      503.83775      287.80687      143.1489       0              469.07819      0              0              0              1403.8717      859.73565    
     10200   10200         -0.40650155     682196.99      0.015598242    284.50904      399.34274      329.55104      175.15225      0              550.55989      0              0              0              1454.6059      762.4126     
     10300   10300         -33.912883      682196.99      0.015598242    295.74997      475.05817      292.76253      156.1163       0              472.72722      0              0              0              1396.6642      792.53546    
     10400   10400          122.80188      682196.99      0.015598242    316.85396      353.50212      254.73054      180.55676      0              523.22222      0              0              0              1312.0116      849.08883    
     10500   10500         -69.554151      682196.99      0.015598242    316.12876      399.71866      242.13906      167.70518      0              493.69549      0              0              0              1303.2584      847.14548    
     10600   10600         -71.733346      682196.99      0.015598242    316.63447      415.94222      237.96553      165.34115      0              474.68589      0              0              0              1293.9348      848.50067    
     10700   10700          123.7822       682196.99      0.015598242    325.76973      372.0644       233.51312      136.14197      0              522.18063      0              0              0              1263.9001      872.98085    
     10800   10800         -70.157024      682196.99      0.015598242    310.02773      418.53773      253.75832      163.07922      0              470.58222      0              0              0              1305.9575      830.79625    
     10900   10900          93.202791      682196.99      0.015598242    298.55999      371.11931      262.49762      176.18634      0              525.53404      0              0              0              1335.3373      800.0656     
     11000   11000         -211.77923      652582.8       0.01630609     308.50141      458.99775      252.57256      149.27269      0              445.4975       0              0              0              1306.3405      826.70612    
     11100   11100         -306.16129      652582.8       0.01630609     334.5621       519.72308      259.32131      143.49415      0              441.44002      0              0              0              1363.9786      896.54219    
     11200   11200          25.87078       652582.8       0.01630609     296.16276      386.54641      296.78079      188.77472      0              546.36493      0              0              0              1418.4668      793.64162    
     11300   11300         -22.432895      652582.8       0.01630609     308.00218      458.92268      283.74546      153.40168      0              463.2934       0              0              0              1359.3632      825.3683     
     11400   11400          37.402072      652582.8       0.01630609     298.12117      407.33314      272.29102      170.74051      0              510.89023      0              0              0              1361.2549      798.88968    
     11500   11500         -8.613808       652582.8       0.01630609     291.69647      402.49319      260.91529      194.45706      0              507.82045      0              0              0              1365.686       781.67311    
     11600   11600         -104.33907      652582.8       0.01630609     285.58183      447.04904      277.04648      179.77019      0              470.821        0              0              0              1374.6867      765.28739    
     11700   11700          192.40578      652582.8       0.01630609     310.68565      355.64982      241.79179      163.88029      0              540.45412      0              0              0              1301.776       832.55932    
     11800   11800         -208.2217       652582.8       0.01630609     293.32919      466.26625      282.37632      159.29405      0              440.35478      0              0              0              1348.2914      786.04839    
     11900   11900          228.02294      652582.8       0.01630609     296.01997      349.85169      271.40578      171.7794       0              545.23687      0              0              0              1338.2737      793.25898    
     12000   12000         -239.53806      624254.16      0.01704606     301.03154      480.97939      266.28671      144.83273      0              430.23909      0              0              0              1322.3379      806.68874    
     12100   12100         -329.8187       624254.16      0.01704606     339.1129       513.26866      263.74089      159.69418      0              426.99744      0              0              0              1363.7012      908.7372     
     12200   12200          27.795147      624254.16      0.01704606     305.97812      376.8384       296.91729      199.99238      0              524.65834      0              0              0              1398.4064      819.94432    
     12300   12300          11.541713      624254.16      0.01704606     327.64263      449.62768      274.84975      139.81854      0              441.78784      0              0              0              1306.0838      877.99975    
     12400   12400          141.45682      624254.16      0.01704606     306.37865      355.11229      277.68199      191.0102       0              506.0949       0              0              0              1329.8994      821.01764    
     12500   12500         -184.27263      624254.16      0.01704606     301.16943      412.67335      257.91311      199.39358      0              454.08915      0              0              0              1324.0692      807.05824    
     12600   12600          16.726709      624254.16      0.01704606     311.52004      392.26414      256.5529       170.6113       0              463.80447      0              0              0              1283.2328      834.79528    
     12700   12700          173.86571      624254.16      0.01704606     322.34223      345.51774      243.52344      154.02428      0              499.63671      0              0              0              1242.7022      863.79602    
     12800   12800         -188.68018      624254.16      0.01704606     288.63425      452.80738      261.96214      182.02502      0              438.00076      0              0              0              1334.7953      773.46711    
     12900   12900          186.73473      624254.16      0.01704606     290.49548      364.25208      264.60981      172.31212      0              529.96368      0              0              0              1331.1377      778.45474    
     13000   13000         -194.98449      597155.27      0.017819609    312.15058      450.37977      233.94249      154.52994      0              435.87081      0              0              0              1274.723       836.48497    
     13100   13100         -350.84294      597155.27      0.017819609    323.20146      510.00207      278.56719      188.23429      0              426.27856      0              0              0              1403.0821      866.09853    
     13200   13200          3.2495264      597155.27      0.017819609    305.98894      379.72216      291.60058      205.98844      0              519.24129      0              0              0              1396.5525      819.97331    
     13300   13300          16.476683      597155.27      0.017819609    318.96455      464.33389      275.30727      141.45009      0              448.29392      0              0              0              1329.3852      854.74468    
     13400   13400          98.408274      597155.27      0.017819609    303.80486      385.82186      267.00494      182.17726      0              501.97099      0              0              0              1336.975       814.12054    
     13500   13500         -118.30566      597155.27      0.017819609    299.11267      407.40558      260.0163       199.02069      0              463.95802      0              0              0              1330.4006      801.54665    
     13600   13600         -18.183277      597155.27      0.017819609    301.8686       402.89265      263.00869      175.67808      0              468.98063      0              0              0              1310.5601      808.93184    
     13700   13700          114.7854       597155.27      0.017819609    310.50518      358.70509      250.12018      171.42392      0              500.85506      0              0              0              1281.1042      832.07571    
     13800   13800         -177.3343       597155.27      0.017819609    291.6912       448.71223      254.5193       189.73737      0              438.07863      0              0              0              1331.0475      781.65899    
     13900   13900          208.38749      597155.27      0.017819609    302.7305       352.27696      233.35675      192.96765      0              522.63756      0              0              0              1301.2389      811.24151    
     14000   14000         -258.81123      571232.74      0.018628263    304.84031      457.71438      231.41966      184.152        0              423.60539      0              0              0              1296.8914      816.89528    
     14100   14100         -351.97886      571232.74      0.018628263    324.963        509.0192       257.60713      173.43732      0              432.67683      0              0              0              1372.7405      870.81903    
     14200   14200          47.245041      571232.74      0.018628263    304.01486      376.41462      297.35663      186.54738      0              520.39746      0              0              0              1380.7161      814.68327    
     14300   14300          23.953952      571232.74      0.018628263    320.32572      446.38032      251.76742      166.48951      0              441.00842      0              0              0              1305.6457      858.39229    
     14400   14400          20.002166      571232.74      0.018628263    314.66595      391.46549      260.82152      166.3131       0              476.76751      0              0              0              1295.3676      843.22551    
     14500   14500         -26.109886      571232.74      0.018628263    318.04091      351.54092      265.92521      177.87478      0              471.702        0              0              0              1267.0429      852.26957    
     14600   14600         -84.914474      571232.74      0.018628263    296.72759      410.337        264.2133       195.4421       0              444.44266      0              0              0              1314.4351      795.15525    
     14700   14700          198.20875      571232.74      0.018628263    311.08739      341.70424      236.02177      198.68854      0              495.12327      0              0              0              1271.5378      833.63589    
     14800   14800         -198.08116      571232.74      0.018628263    311.7989       420.59016      262.8843       158.4776       0              426.10835      0              0              0              1268.0604      835.54254    
     14900   14900          235.5577       571232.74      0.018628263    292.85052      353.01592      249.91032      197.92025      0              519.04029      0              0              0              1319.8868      784.76566    
     15000   15000         -292.89928      546435.51      0.019473613    286.0849       485.48493      254.77541      189.28197      0              410.64744      0              0              0              1340.1898      766.6355     
     15100   15100         -224.98631      546435.51      0.019473613    324.48316      467.41405      235.08006      172.80117      0              430.85487      0              0              0              1306.1501      869.53318    
     15200   15200          3.826047       546435.51      0.019473613    291.23865      405.05837      277.75981      190.29436      0              489.88926      0              0              0              1363.0018      780.44627    
     15300   15300         -37.264545      546435.51      0.019473613    302.6012       432.25392      273.20419      171.5648       0              436.32988      0              0              0              1313.3528      810.89504    
     15400   15400          107.76995      546435.51      0.019473613    283.08215      399.43422      274.3603       188.61112      0              489.23038      0              0              0              1351.636       758.58889    
     15500   15500         -58.886373      546435.51      0.019473613    289.21382      403.76581      285.33249      179.7014       0              461.82378      0              0              0              1330.6235      775.02022    
     15600   15600         -57.628708      546435.51      0.019473613    291.38733      404.40715      273.31834      189.50934      0              455.4104       0              0              0              1322.6452      780.84469    
     15700   15700          104.01816      546435.51      0.019473613    305.23386      385.18993      236.77429      180.4481       0              481.60476      0              0              0              1284.0171      817.94989    
     15800   15800         -94.533521      546435.51      0.019473613    296.25394      412.89702      252.62594      219.04385      0              422.27339      0              0              0              1306.8402      793.88596    
     15900   15900          160.53818      546435.51      0.019473613    305.1579       353.45887      259.39185      176.22482      0              492.20492      0              0              0              1281.2805      817.74635    
     16000   16000         -227.36107      522714.73      0.020357325    296.93979      432.80449      258.36176      184.94699      0              424.65031      0              0              0              1300.7636      795.72388    
     16100   16100         -415.06667      522714.73      0.020357325    327.82171      529.8464       266.26353      200.9717       0              403.36081      0              0              0              1400.4424      878.47966    
     16200   16200          84.372858      522714.73      0.020357325    298.74894      387.29958      281.84825      243.24146      0              509.43817      0              0              0              1421.8275      800.57194    
     16300   16300         -30.953391      522714.73      0.020357325    339.16763      426.58026      257.0016       158.95476      0              432.38965      0              0              0              1274.9263      908.88385    
     16400   16400          142.28279      522714.73      0.020357325    294.10772      384.01738      280.82481      207.37921      0              489.98858      0              0              0              1362.21        788.13465    
     16500   16500         -156.33588      522714.73      0.020357325    307.28265      407.37539      255.36918      191.84537      0              451.04799      0              0              0              1305.6379      823.44014    
     16600   16600         -21.481158      522714.73      0.020357325    298.46993      393.51598      280.79203      174.88673      0              469.75973      0              0              0              1318.9545      799.82428    
     16700   16700          136.66602      522714.73      0.020357325    311.24657      372.68589      245.2444       176.08393      0              487.38478      0              0              0              1281.399       834.06246    
     16800   16800         -148.07         522714.73      0.020357325    296.07769      391.45437      271.19938      226.161        0              431.9794       0              0              0              1320.7942      793.41366    
     16900   16900          197.33208      522714.73      0.020357325    310.04876      336.04948      250.36895      194.78217      0              504.15592      0              0              0              1285.3565      830.85262    
     17000   17000         -332.19682      500023.67      0.02128114     313.29181      450.88061      241.16109      175.63119      0              404.67101      0              0              0              1272.3439      839.54317    
     17100   17100         -266.59666      500023.67      0.02128114     330.16218      485.69204      247.92403      185.49319      0              417.64003      0              0              0              1336.7493      884.75153    
     17200   17200         -39.617248      500023.67      0.02128114     309.59944      365.2105       278.78681      220.60105      0              480.32298      0              0              0              1344.9213      829.64854    
     17300   17300         -16.173274      500023.67      0.02128114     310.20546      422.30311      276.47142      177.86806      0              439.62973      0              0              0              1316.2723      831.27252    
     17400   17400          129.40326      500023.67      0.02128114     309.04322      378.08215      270.61457      179.24804      0              467.80622      0              0              0              1295.751       828.15804    
     17500   17500         -60.869709      500023.67      0.02128114     325.68223      355.39549      243.32932      182.85196      0              452.96018      0              0              0              1234.5369      872.74638    
     17600   17600         -155.87211      500023.67      0.02128114     298.01644      418.14611      251.28947      203.44106      0              429.13441      0              0              0              1302.0111      798.60903    
     17700   17700          196.42566      500023.67      0.02128114     309.13696      346.33657      253.57134      185.97421      0              480.73477      0              0              0              1266.6169      828.40921    
     17800   17800         -133.73547      500023.67      0.02128114     286.92331      416.10516      271.99699      213.58982      0              423.37313      0              0              0              1325.0651      768.88223    
     17900   17900          185.90028      500023.67      0.02128114     291.12989      338.4542       264.24293      216.63727      0              491.94106      0              0              0              1311.2755      780.1548     
     18000   18000         -296.11419      478317.62      0.022246878    294.71666      444.42219      246.9568       203.40455      0              403.21047      0              0              0              1297.994       789.76646    
     18100   18100         -405.21132      478317.62      0.022246878    337.96634      506.7789       251.28432      172.41255      0              397.06411      0              0              0              1327.5399      905.66469    
     18200   18200          77.222878      478317.62      0.022246878    299.41721      355.79608      291.77897      228.06739      0              502.40336      0              0              0              1378.0458      802.36273    
     18300   18300         -115.94464      478317.62      0.022246878    313.57         479.30719      251.99237      176.62095      0              400.45706      0              0              0              1308.3776      840.28865    
     18400   18400          234.35832      478317.62      0.022246878    301.58741      376.30417      243.31657      207.90994      0              482.44875      0              0              0              1309.9794      808.17833    
     18500   18500         -182.11668      478317.62      0.022246878    316.51646      390.44092      245.25725      185.95409      0              432.08042      0              0              0              1253.7327      848.18444    
     18600   18600         -71.289084      478317.62      0.022246878    288.47039      391.725        261.98011      221.03918      0              442.70833      0              0              0              1317.4526      773.02802    
     18700   18700          150.3318       478317.62      0.022246878    324.67433      338.08853      235.29168      184.94368      0              454.43004      0              0              0              1212.7539      870.04546    
     18800   18800         -81.459654      478317.62      0.022246878    304.83703      369.3246       265.95248      198.64559      0              429.08984      0              0              0              1263.0125      816.88648    
     18900   18900          71.837308      478317.62      0.022246878    295.85374      356.33106      260.00318      203.39508      0              468.99771      0              0              0              1288.727       792.81352    
     19000   19000         -186.62229      457553.84      0.02325644     310.67722      406.2272       232.26748      200.84815      0              407.91107      0              0              0              1247.2539      832.53673    
     19100   19100         -434.54751      457553.84      0.02325644     340.39996      480.47672      264.49972      186.97495      0              385.61556      0              0              0              1317.5669      912.1862     
     19200   19200          61.041364      457553.84      0.02325644     319.95065      350.80879      270.29811      223.24525      0              476.66672      0              0              0              1321.0189      857.3872     
     19300   19300         -56.877741      457553.84      0.02325644     343.8473       404.00489      245.12698      172.9885       0              399.84214      0              0              0              1221.9625      921.42419    
     19400   19400          139.62427      457553.84      0.02325644     324.13484      321.56553      244.89401      223.15589      0              455.35603      0              0              0              1244.9715      868.59976    
     19500   19500         -75.271904      457553.84      0.02325644     300.52253      354.44589      250.98129      253.32467      0              431.94836      0              0              0              1290.7002      805.32471    
     19600   19600         -89.194134      457553.84      0.02325644     292.90578      404.25142      262.59668      208.56753      0              425.36746      0              0              0              1300.7831      784.91375    
     19700   19700          212.25319      457553.84      0.02325644     310.90397      336.71492      249.96533      189.43659      0              469.99916      0              0              0              1246.116       833.14437    
     19800   19800         -235.1423       457553.84      0.02325644     301.78377      417.20182      251.99664      205.07661      0              392.88222      0              0              0              1267.1573      808.70452    
     19900   19900          336.60599      457553.84      0.02325644     288.87187      310.1965       246.2789       252.00599      0              488.85927      0              0              0              1297.3407      774.10387    
     20000   20000         -426.03706      437691.42      0.024311817    281.41502      484.39756      265.99666      186.69533      0              382.10884      0              0              0              1319.1984      754.12139    
     20100   20100         -321.67765      437691.42      0.024311817    326.98285      454.926        249.30305      184.11704      0              398.42661      0              0              0              1286.7727      876.23171    
     20200   20200         -34.808953      437691.42      0.024311817    298.6142       366.13049      288.79702      217.56676      0              452.02076      0              0              0              1324.515       800.21089    
     20300   20300          61.707768      437691.42      0.024311817    310.79717      413.6462       253.79233      192.07913      0              412.54944      0              0              0              1272.0671      832.85817    
     20400   20400          77.302605      437691.42      0.024311817    299.29523      370.2967       266.23909      197.87675      0              448.98072      0              0              0              1283.3933      802.03586    
     20500   20500         -40.842871      437691.42      0.024311817    293.8514       384.42257      254.33225      214.10514      0              441.48076      0              0              0              1294.3407      787.44777    
     20600   20600         -182.32163      437691.42      0.024311817    300.01472      387.40156      270.35692      205.48736      0              406.29183      0              0              0              1269.5377      803.9639     
     20700   20700          296.13976      437691.42      0.024311817    313.17262      332.94345      235.65472      194.42421      0              472.91121      0              0              0              1235.9336      839.22378    
     20800   20800         -238.41752      437691.42      0.024311817    298.49731      418.68607      242.82433      220.53194      0              394.52935      0              0              0              1276.5717      799.89765    
     20900   20900          246.34139      437691.42      0.024311817    289.59991      331.99571      258.38478      226.9424       0              484.32838      0              0              0              1301.6513      776.05486    
     21000   21000         -347.17257      418691.22      0.025415087    304.92584      451.34404      247.48029      179.63909      0              385.63943      0              0              0              1264.1028      817.12449    
     21100   21100         -369.7309       418691.22      0.025415087    347.6399       446.97672      247.02341      183.65403      0              394.53616      0              0              0              1272.1903      931.5874     
     21200   21200         -37.796525      418691.22      0.025415087    299.26551      361.03821      272.6838       261.59573      0              460.26415      0              0              0              1355.5819      801.95623    
     21300   21300         -17.901137      418691.22      0.025415087    315.75837      423.06099      262.95109      188.1168       0              410.2706       0              0              0              1284.3995      846.15295    
     21400   21400          158.13456      418691.22      0.025415087    286.76935      369.59924      297.36015      196.35383      0              477.74329      0              0              0              1341.0565      768.46966    
     21500   21500         -159.84147      418691.22      0.025415087    286.04955      412.48158      272.46803      211.46982      0              433.2213       0              0              0              1329.6407      766.54077    
     21600   21600         -4.3466102      418691.22      0.025415087    283.19035      385.56313      267.47201      238.83654      0              437.94558      0              0              0              1329.8173      758.87883    
     21700   21700          116.23822      418691.22      0.025415087    325.17576      363.77815      224.84395      174.46861      0              453.47534      0              0              0              1216.566       871.38918    
     21800   21800         -87.22683       418691.22      0.025415087    301.65119      405.12746      257.87019      192.33288      0              424.01764      0              0              0              1279.3482      808.34924    
     21900   21900          70.350673      418691.22      0.025415087    305.76677      379.09543      261.59557      177.95749      0              446.98738      0              0              0              1265.6359      819.37796    
[...]
dump                1 all custom 1000 1.8_nve.lammpstrj id mol type q xs ys zs
timestep            1.0
run                 5000
Generated 1 of 1 mixed pair_coeff terms from arithmetic mixing rule
WARNING: Proc sub-domain size < neighbor skin, could lead to lost atoms (src/domain.cpp:1202)
Per MPI rank memory allocation (min/avg/max) = 10.61 | 10.99 | 11.08 Mbytes
   Step         v_time         Press          Volume      v_sysdensity       Temp          E_bond        E_angle        E_dihed        E_impro         E_vdwl         E_coul         E_tail         E_long         PotEng         KinEng    
         0   1e-06          837.91775      10254.876      1.0376599      298.91827      310.09905      247.74368      215.48702      0             -86.606994      0              0              0              686.72275      801.02569    
       100   100            503.21884      10254.876      1.0376599      307.54009      317.38875      243.81119      201.45374      0             -99.958666      0              0              0              662.69501      824.13       
       200   200            73.977727      10254.876      1.0376599      300.1539       325.19726      243.37947      213.19816      0             -98.108879      0              0              0              683.66601      804.33687    
       300   300           -1335.1497      10254.876      1.0376599      299.22931      315.02365      258.67225      205.06265      0             -93.802668      0              0              0              684.95588      801.85921    
       400   400           -623.99684      10254.876      1.0376599      299.40906      328.46286      237.68635      213.44199      0             -94.207583      0              0              0              685.38362      802.34091    
       500   500            2238.8409      10254.876      1.0376599      294.08938      317.154        251.72685      220.37761      0             -90.352131      0              0              0              698.90633      788.08549    
       600   600           -1384.3987      10254.876      1.0376599      307.01904      332.81051      224.36267      210.16026      0             -102.44014      0              0              0              664.89331      822.73373    
       700   700           -523.14389      10254.876      1.0376599      292.2333       333.76933      251.16343      212.5048       0             -93.061285      0              0              0              704.37628      783.11168    
       800   800           -803.56891      10254.876      1.0376599      301.79106      321.09079      248.10703      210.6154       0             -101.58548      0              0              0              678.22774      808.72407    
       900   900            1542.8806      10254.876      1.0376599      298.9433       319.69136      251.02522      203.18894      0             -87.03377       0              0              0              686.87176      801.09278    
      1000   1000           1232.4513      10254.876      1.0376599      312.21912      309.62471      236.15935      196.27737      0             -92.364423      0              0              0              649.697        836.66865    
      1100   1100          -572.9485       10254.876      1.0376599      289.74956      331.47334      260.04892      212.32038      0             -91.857779      0              0              0              711.98486      776.45588    
      1200   1200           631.51408      10254.876      1.0376599      294.27431      321.74318      259.20769      215.21223      0             -97.16236       0              0              0              699.00074      788.58106    
      1300   1300          -1139.6558      10254.876      1.0376599      288.27069      321.62768      278.78118      220.49514      0             -105.5515       0              0              0              715.3525       772.49287    
      1400   1400           1312.9558      10254.876      1.0376599      298.75759      302.00276      258.22558      223.63812      0             -97.53849       0              0              0              686.32798      800.59513    
      1500   1500          -1453.1972      10254.876      1.0376599      307.43418      312.63019      253.854        199.92703      0             -102.82657      0              0              0              663.58465      823.84619    
      1600   1600           185.60975      10254.876      1.0376599      299.06123      317.78247      247.24976      210.73223      0             -89.946194      0              0              0              685.81827      801.40881    
      1700   1700          -421.20235      10254.876      1.0376599      296.56062      322.62424      255.39572      212.98104      0             -98.40597       0              0              0              692.59504      794.70781    
      1800   1800           928.56055      10254.876      1.0376599      282.72417      336.42405      254.47122      225.45181      0             -85.460188      0              0              0              730.88689      757.62959    
      1900   1900          -1198.7988      10254.876      1.0376599      300.24543      311.22456      247.70271      218.3966       0             -95.606392      0              0              0              681.71748      804.58216    
      2000   2000          -316.90152      10254.876      1.0376599      288.42913      322.73865      245.83188      230.36335      0             -83.825261      0              0              0              715.10862      772.91744    
      2100   2100          -295.56498      10254.876      1.0376599      296.44605      320.26042      244.96083      222.04985      0             -94.751615      0              0              0              692.51948      794.40079    
      2200   2200           1839.8132      10254.876      1.0376599      313.06854      310.41451      238.6255       199.09826      0             -99.720882      0              0              0              648.41739      838.94487    
      2300   2300          -644.41866      10254.876      1.0376599      309.57049      319.13108      237.19173      200.43668      0             -99.489407      0              0              0              657.27009      829.57097    
      2400   2400           2031.0162      10254.876      1.0376599      300.73794      310.81301      242.61278      222.07125      0             -94.098273      0              0              0              681.39877      805.90197    
      2500   2500          -1964.7034      10254.876      1.0376599      291.62636      319.72559      261.13674      220.98853      0             -95.586325      0              0              0              706.26455      781.48521    
      2600   2600           467.65023      10254.876      1.0376599      308.64284      309.62145      251.20514      200.18485      0             -101.5218       0              0              0              659.48964      827.08511    
      2700   2700           272.86437      10254.876      1.0376599      293.79572      337.03195      251.372        195.56194      0             -83.518605      0              0              0              700.44729      787.29856    
      2800   2800          -393.6309       10254.876      1.0376599      297.45721      332.87691      241.87217      212.93703      0             -97.517305      0              0              0              690.16881      797.11043    
      2900   2900           328.24683      10254.876      1.0376599      313.3816       302.65285      241.28294      199.13119      0             -96.359365      0              0              0              646.70762      839.7838     
      3000   3000           387.44448      10254.876      1.0376599      288.58114      333.43322      243.56778      216.63175      0             -78.545916      0              0              0              715.08682      773.32479    
      3100   3100           2468.2099      10254.876      1.0376599      297.70011      293.78488      244.72083      226.23499      0             -76.023594      0              0              0              688.71711      797.76134    
      3200   3200          -2413.7278      10254.876      1.0376599      290.53899      338.75018      255.46347      209.69255      0             -94.437279      0              0              0              709.46892      778.57135    
      3300   3300           892.82278      10254.876      1.0376599      289.74234      320.78487      261.79591      225.18332      0             -96.217172      0              0              0              711.54693      776.43652    
      3400   3400          -619.51666      10254.876      1.0376599      298.37592      309.27402      267.97464      210.12062      0             -99.923104      0              0              0              687.44618      799.57234    
      3500   3500          -403.24514      10254.876      1.0376599      301.06293      313.33374      243.94861      214.82761      0             -91.540644      0              0              0              680.56931      806.77286    
      3600   3600          -652.20347      10254.876      1.0376599      290.37748      314.31893      250.6355       242.4405       0             -98.040487      0              0              0              709.35445      778.13854    
      3700   3700           3608.8086      10254.876      1.0376599      293.79612      326.20719      242.81197      215.99289      0             -84.579264      0              0              0              700.43279      787.29963    
      3800   3800          -203.17964      10254.876      1.0376599      298.81899      324.73438      242.98656      214.18624      0             -95.88072       0              0              0              686.02647      800.75967    
      3900   3900          -950.38003      10254.876      1.0376599      296.65309      320.50317      239.86632      220.29733      0             -88.038356      0              0              0              692.62847      794.95558    
      4000   4000           1064.3564      10254.876      1.0376599      295.49606      332.60222      240.7513       205.05743      0             -82.250904      0              0              0              696.16005      791.85504    
      4100   4100           728.03174      10254.876      1.0376599      306.42027      308.45105      244.09531      211.02531      0             -98.636732      0              0              0              664.93494      821.12918    
      4200   4200          -153.51886      10254.876      1.0376599      295.57775      328.44963      240.387        210.39942      0             -82.669562      0              0              0              696.5665       792.07395    
      4300   4300          -1130.7691      10254.876      1.0376599      306.59194      302.59412      244.62255      213.94635      0             -96.410878      0              0              0              664.75214      821.5892     
      4400   4400           356.87638      10254.876      1.0376599      304.3977       333.35242      248.58848      199.8168       0             -109.19006      0              0              0              672.56763      815.7092     
      4500   4500           348.66386      10254.876      1.0376599      315.71749      295.36038      235.4467       208.38935      0             -100.18368      0              0              0              639.01276      846.04338    
      4600   4600          -2923.1349      10254.876      1.0376599      294.69021      355.75016      243.18035      207.90347      0             -107.60528      0              0              0              699.22871      789.69556    
      4700   4700           790.41451      10254.876      1.0376599      292.72003      317.89015      252.55812      222.15724      0             -89.886476      0              0              0              702.71904      784.41598    
      4800   4800           737.9994       10254.876      1.0376599      302.25321      315.14856      244.83808      231.44203      0             -114.5219       0              0              0              676.90677      809.96251    
      4900   4900           512.81941      10254.876      1.0376599      304.79046      318.30521      239.49433      210.22198      0             -97.652114      0              0              0              670.3694       816.76169    
      5000   5000          -1840.954       10254.876      1.0376599      301.49867      331.80263      239.11116      203.57663      0             -94.896874      0              0              0              679.59354      807.94053    
Loop time of 4.50452 on 16 procs for 5000 steps with 900 atoms

Performance: 95.904 ns/day, 0.250 hours/ns, 1109.995 timesteps/s, 998.996 katom-step/s
89.9% CPU use with 16 MPI tasks x 1 OpenMP threads

MPI task timing breakdown:
Section |  min time  |  avg time  |  max time  |%varavg| %total
---------------------------------------------------------------
Pair    | 1.4505     | 1.9524     | 2.4524     |  22.3 | 43.34
Bond    | 0.048075   | 0.061492   | 0.078469   |   3.1 |  1.37
Neigh   | 0.063468   | 0.063656   | 0.063895   |   0.1 |  1.41
Comm    | 1.4743     | 1.9824     | 2.4679     |  22.0 | 44.01
Output  | 0.0025733  | 0.0027761  | 0.0031337  |   0.3 |  0.06
Modify  | 0.24662    | 0.25981    | 0.27378    |   1.6 |  5.77
Other   |            | 0.182      |            |       |  4.04

Nlocal:          56.25 ave          75 max          47 min
Histogram: 5 1 3 1 2 1 1 1 0 1
Nghost:         5986.5 ave        6054 max        5897 min
Histogram: 1 1 0 2 2 2 4 1 0 3
Neighs:        28163.8 ave       45316 max       19364 min
Histogram: 2 4 4 1 2 0 0 2 0 1

Total # of neighbors = 450621
Ave neighs/atom = 500.69
Ave special neighs/atom = 9.6666667
Neighbor list builds = 65
Dangerous builds = 0
unfix               1
unfix               2
undump              1
reset_timestep      0
#-------------------------------------------------------------------------------
# Substage 1.9: Minimization
# Initialize LAMMPS run.
#-------------------------------------------------------------------------------
min_style           cg
min_modify          dmax 0.05
thermo_style        custom step fmax fnorm press vol v_sysdensity v_sxx v_syy v_szz v_syz v_sxz v_sxy pe v_cella v_cellb v_cellc v_cellalpha v_cellbeta v_cellgamma
dump                minrun all custom 1000 1.9_minimization.lammpstrj id mol type q xs ys zs
thermo              100
minimize            0.0 0.0 1000 10000
Generated 1 of 1 mixed pair_coeff terms from arithmetic mixing rule
WARNING: Proc sub-domain size < neighbor skin, could lead to lost atoms (src/domain.cpp:1202)
Per MPI rank memory allocation (min/avg/max) = 11.73 | 12.12 | 12.2 Mbytes
   Step          Fmax          Fnorm          Press          Volume      v_sysdensity      v_sxx          v_syy          v_szz          v_syz          v_sxz          v_sxy          PotEng        v_cella        v_cellb        v_cellc      v_cellalpha     v_cellbeta    v_cellgamma  
         0   112.28151      1284.0834     -1840.954       10254.876      1.0376599      2434.2254      7128.2677     -4039.6312      119.12268     -27.15289      -496.456        679.59354      20.548622      20.548622      24.286503      1.5707963      1.5707963      1.5707963    
       100   1.9605031      21.521438     -971.81757      10254.876      1.0376599      868.7168       1087.3976      959.33834     -15.51043       79.168481      82.040549     -91.701369      20.548622      20.548622      24.286503      1.5707963      1.5707963      1.5707963    
       200   0.75557981     7.0260289     -760.26217      10254.876      1.0376599      827.62623      771.48787      681.67242     -136.08923     -153.79709      55.950663     -101.35274      20.548622      20.548622      24.286503      1.5707963      1.5707963      1.5707963    
       300   0.74073034     8.1158208     -607.99684      10254.876      1.0376599      609.19902      819.34224      395.44927     -116.46768     -51.188154      62.621722     -106.43006      20.548622      20.548622      24.286503      1.5707963      1.5707963      1.5707963    
       400   0.47540309     5.4047175     -571.29188      10254.876      1.0376599      674.96172      582.22964      456.68427     -124.30822     -64.241538      117.69377     -109.13062      20.548622      20.548622      24.286503      1.5707963      1.5707963      1.5707963    
       500   0.63685853     6.8056821     -340.08535      10254.876      1.0376599      342.48822      376.38894      301.37891     -36.807568      118.89437      170.55935     -111.48264      20.548622      20.548622      24.286503      1.5707963      1.5707963      1.5707963    
       600   0.78948716     8.4743934      29.113252      10254.876      1.0376599     -11.40899      -187.24276      111.31199     -87.286586      196.43016      94.09653      -114.93564      20.548622      20.548622      24.286503      1.5707963      1.5707963      1.5707963    
       700   0.86474692     6.7621469      152.63421      10254.876      1.0376599     -64.15243      -441.60003      47.84983      -180.8091      -11.123128      152.3233      -118.57934      20.548622      20.548622      24.286503      1.5707963      1.5707963      1.5707963    
       800   0.7353634      8.1449262      378.90388      10254.876      1.0376599     -313.89081     -472.1632      -350.65763     -26.60425      -63.422333      307.09817     -121.9757       20.548622      20.548622      24.286503      1.5707963      1.5707963      1.5707963    
       900   0.99226554     6.9938937      720.35336      10254.876      1.0376599     -534.19748     -790.11104     -836.75155     -212.04651     -91.019079      279.42937     -124.97739      20.548622      20.548622      24.286503      1.5707963      1.5707963      1.5707963    
      1000   1.066048       7.0314594      812.72175      10254.876      1.0376599     -739.68151     -863.1642      -835.31953     -47.993784     -118.04858      278.42772     -127.60671      20.548622      20.548622      24.286503      1.5707963      1.5707963      1.5707963    
Loop time of 1.81997 on 16 procs for 1000 steps with 900 atoms

88.9% CPU use with 16 MPI tasks x 1 OpenMP threads

Minimization stats:
  Stopping criterion = max iterations
  Energy initial, next-to-last, final = 
      679.593543700371  -127.581049508606  -127.606706456918
  Force two-norm initial, final = 1284.0834 7.0314594
  Force max component initial, final = 112.28151 1.066048
  Final line search alpha, max atom move = 0.0046231533 0.0049285036
  Iterations, force evaluations = 1000 2000

MPI task timing breakdown:
Section |  min time  |  avg time  |  max time  |%varavg| %total
---------------------------------------------------------------
Pair    | 0.43744    | 0.75813    | 1.1818     |  22.4 | 41.66
Bond    | 0.013264   | 0.021927   | 0.029865   |   2.6 |  1.20
Neigh   | 0.0099464  | 0.0099801  | 0.010033   |   0.0 |  0.55
Comm    | 0.50616    | 0.93456    | 1.2479     |  20.3 | 51.35
Output  | 0.0010913  | 0.0011319  | 0.0012139  |   0.1 |  0.06
Modify  | 0          | 0          | 0          |   0.0 |  0.00
Other   |            | 0.09424    |            |       |  5.18

Nlocal:          56.25 ave          72 max          37 min
Histogram: 1 1 1 2 1 2 4 1 1 2
Nghost:        5999.31 ave        6209 max        5735 min
Histogram: 1 2 1 0 1 2 3 3 2 1
Neighs:        28208.6 ave       44525 max       14626 min
Histogram: 1 2 2 1 4 2 0 2 1 1

Total # of neighbors = 451337
Ave neighs/atom = 501.48556
Ave special neighs/atom = 9.6666667
Neighbor list builds = 9
Dangerous builds = 0
undump              minrun
Total wall time: 0:00:47
