read using pysimm.system.read_mol

50 atoms
40 bonds
60 angles
0 dihedrals
0 impropers

2 atom types
1 bond types
1 angle types

0.000000 6.432937 xlo xhi
0.000000 6.432937 ylo yhi
0.000000 64.329375 zlo zhi

Masses

   1	12.01	# c3
   2	1.008	# hc

Pair Coeffs

   1	0.1078	3.397709531243626	# c3
   2	0.0208	2.600176998764394	# hc

Bond Coeffs

   1	375.92	1.097	# c3,hc

Angle Coeffs

   1	38.96	107.58	# hc,c3,hc

Atoms

   1	1	1	-0.07766211687241323	3.2165	3.2165	32.1647
   2	1	2	0.019415529218103307	2.5407	4.0703	32.0795
   3	1	2	0.019415529218103307	2.8219	2.3804	31.5831
   4	1	2	0.019415529218103307	3.3014	2.9227	33.2132
   5	1	2	0.019415529218103307	4.2019	3.4925	31.783
   6	2	1	-0.07766211687241323	4.8247	1.6082	41.997
   7	2	2	0.019415529218103307	5.0594	1.2209	42.9909
   8	2	2	0.019415529218103307	4.6472	0.7747	41.314
   9	2	2	0.019415529218103307	5.6628	2.206	41.632
  10	2	2	0.019415529218103307	3.9294	2.2314	42.0513
  11	3	1	-0.07766211687241323	1.6082	4.8247	22.3323
  12	3	2	0.019415529218103307	1.7754	5.3247	23.2889
  13	3	2	0.019415529218103307	1.9845	3.8008	22.3861
  14	3	2	0.019415529218103307	2.1345	5.3649	21.5423
  15	3	2	0.019415529218103307	0.5386	4.8085	22.1121
  16	4	1	-0.07766211687241323	2.4124	2.4124	37.0809
  17	4	2	0.019415529218103307	1.8948	1.6278	37.6372
  18	4	2	0.019415529218103307	3.2381	1.974	36.5162
  19	4	2	0.019415529218103307	2.8029	3.1563	37.7787
  20	4	2	0.019415529218103307	1.7136	2.8913	36.3914
  21	5	1	-0.07766211687241323	5.6288	5.6288	17.4162
  22	5	2	0.019415529218103307	5.8467	6.6646	17.1468
  23	5	2	0.019415529218103307	5.787	4.9858	16.5476
  24	5	2	0.019415529218103307	4.5901	5.5487	17.7442
  25	5	2	0.019415529218103307	6.2915	5.3162	18.2261
  26	6	1	-0.07766211687241323	4.0206	0.8041	27.2485
  27	6	2	0.019415529218103307	3.2864	1.6016	27.3824
  28	6	2	0.019415529218103307	3.5318	-0.165	27.3702
  29	6	2	0.019415529218103307	4.8119	0.9089	27.994
  30	6	2	0.019415529218103307	4.4523	0.871	26.2475
  31	7	1	-0.07766211687241323	0.8041	4.0206	46.9132
  32	7	2	0.019415529218103307	-0.0265	4.1751	47.6053
  33	7	2	0.019415529218103307	1.7461	4.0356	47.4658
  34	7	2	0.019415529218103307	0.8079	4.8167	46.1655
  35	7	2	0.019415529218103307	0.689	3.0549	46.4161
  36	8	1	-0.07766211687241323	1.2062	2.0103	24.7904
  37	8	2	0.019415529218103307	1.6462	1.0111	24.7592
  38	8	2	0.019415529218103307	0.3676	2.0607	24.0925
  39	8	2	0.019415529218103307	1.9597	2.7489	24.5082
  40	8	2	0.019415529218103307	0.8513	2.2204	25.8018
  41	9	1	-0.07766211687241323	4.4226	5.2268	44.4551
  42	9	2	0.019415529218103307	3.3728	4.979	44.2838
  43	9	2	0.019415529218103307	4.6495	5.1345	45.5195
  44	9	2	0.019415529218103307	4.6125	6.252	44.1299
  45	9	2	0.019415529218103307	5.0558	4.5415	43.8872
  46	10	1	-0.07766211687241323	6.0309	0.4021	34.6228
  47	10	2	0.019415529218103307	5.3385	-0.1387	35.2716
  48	10	2	0.019415529218103307	6.788	0.8997	35.2327
  49	10	2	0.019415529218103307	5.481	1.148	34.0448
  50	10	2	0.019415529218103307	6.5161	-0.3008	33.942

Velocities

   1	0.0	0.0	0.0
   2	0.0	0.0	0.0
   3	0.0	0.0	0.0
   4	0.0	0.0	0.0
   5	0.0	0.0	0.0
   6	0.0	0.0	0.0
   7	0.0	0.0	0.0
   8	0.0	0.0	0.0
   9	0.0	0.0	0.0
  10	0.0	0.0	0.0
  11	0.0	0.0	0.0
  12	0.0	0.0	0.0
  13	0.0	0.0	0.0
  14	0.0	0.0	0.0
  15	0.0	0.0	0.0
  16	0.0	0.0	0.0
  17	0.0	0.0	0.0
  18	0.0	0.0	0.0
  19	0.0	0.0	0.0
  20	0.0	0.0	0.0
  21	0.0	0.0	0.0
  22	0.0	0.0	0.0
  23	0.0	0.0	0.0
  24	0.0	0.0	0.0
  25	0.0	0.0	0.0
  26	0.0	0.0	0.0
  27	0.0	0.0	0.0
  28	0.0	0.0	0.0
  29	0.0	0.0	0.0
  30	0.0	0.0	0.0
  31	0.0	0.0	0.0
  32	0.0	0.0	0.0
  33	0.0	0.0	0.0
  34	0.0	0.0	0.0
  35	0.0	0.0	0.0
  36	0.0	0.0	0.0
  37	0.0	0.0	0.0
  38	0.0	0.0	0.0
  39	0.0	0.0	0.0
  40	0.0	0.0	0.0
  41	0.0	0.0	0.0
  42	0.0	0.0	0.0
  43	0.0	0.0	0.0
  44	0.0	0.0	0.0
  45	0.0	0.0	0.0
  46	0.0	0.0	0.0
  47	0.0	0.0	0.0
  48	0.0	0.0	0.0
  49	0.0	0.0	0.0
  50	0.0	0.0	0.0

Bonds

   1	1	1	2
   2	1	1	3
   3	1	1	4
   4	1	1	5
   5	1	6	7
   6	1	6	8
   7	1	6	9
   8	1	6	10
   9	1	11	12
  10	1	11	13
  11	1	11	14
  12	1	11	15
  13	1	16	17
  14	1	16	18
  15	1	16	19
  16	1	16	20
  17	1	21	22
  18	1	21	23
  19	1	21	24
  20	1	21	25
  21	1	26	27
  22	1	26	28
  23	1	26	29
  24	1	26	30
  25	1	31	32
  26	1	31	33
  27	1	31	34
  28	1	31	35
  29	1	36	37
  30	1	36	38
  31	1	36	39
  32	1	36	40
  33	1	41	42
  34	1	41	43
  35	1	41	44
  36	1	41	45
  37	1	46	47
  38	1	46	48
  39	1	46	49
  40	1	46	50

Angles

   1	1	2	1	3
   2	1	2	1	4
   3	1	2	1	5
   4	1	3	1	4
   5	1	3	1	5
   6	1	4	1	5
   7	1	7	6	8
   8	1	7	6	9
   9	1	7	6	10
  10	1	8	6	9
  11	1	8	6	10
  12	1	9	6	10
  13	1	12	11	13
  14	1	12	11	14
  15	1	12	11	15
  16	1	13	11	14
  17	1	13	11	15
  18	1	14	11	15
  19	1	17	16	18
  20	1	17	16	19
  21	1	17	16	20
  22	1	18	16	19
  23	1	18	16	20
  24	1	19	16	20
  25	1	22	21	23
  26	1	22	21	24
  27	1	22	21	25
  28	1	23	21	24
  29	1	23	21	25
  30	1	24	21	25
  31	1	27	26	28
  32	1	27	26	29
  33	1	27	26	30
  34	1	28	26	29
  35	1	28	26	30
  36	1	29	26	30
  37	1	32	31	33
  38	1	32	31	34
  39	1	32	31	35
  40	1	33	31	34
  41	1	33	31	35
  42	1	34	31	35
  43	1	37	36	38
  44	1	37	36	39
  45	1	37	36	40
  46	1	38	36	39
  47	1	38	36	40
  48	1	39	36	40
  49	1	42	41	43
  50	1	42	41	44
  51	1	42	41	45
  52	1	43	41	44
  53	1	43	41	45
  54	1	44	41	45
  55	1	47	46	48
  56	1	47	46	49
  57	1	47	46	50
  58	1	48	46	49
  59	1	48	46	50
  60	1	49	46	50

