ITEM: TIMESTEP
0
ITEM: NUMBER OF ATOMS
900
ITEM: BOX BOUNDS pp pp pp
0.0000000000000000e+00 2.1989592999999999e+01
0.0000000000000000e+00 2.1989592999999999e+01
0.0000000000000000e+00 2.1989592920000000e+03
ITEM: ATOMS id mol type q xs ys zs
438 25 2 -0.0616365 0.568246 0.633663 0.0372863
439 25 2 -0.0616365 0.58846 0.577519 0.0370753
440 25 2 -0.0543881 0.637283 0.574535 0.0366707
441 25 2 -0.018412 0.66652 0.627729 0.036472
447 25 1 0.0622985 0.530237 0.636042 0.0376013
448 25 1 0.0622985 0.566263 0.535985 0.0372252
449 25 1 0.0629322 0.652427 0.530251 0.0365108
442 25 2 -0.0543881 0.715698 0.625528 0.0360651
450 25 1 0.0629322 0.732137 0.582084 0.0358952
436 25 2 -0.018412 0.645983 0.684774 0.0366864
437 25 2 -0.0543881 0.596805 0.68697 0.0370934
445 25 1 0.0629322 0.660071 0.782252 0.0366477
446 25 1 0.0629322 0.580365 0.730414 0.0372633
433 25 2 -0.0616365 0.744252 0.678839 0.0358721
434 25 2 -0.0616365 0.724043 0.734979 0.0360832
435 25 2 -0.0543881 0.675219 0.737967 0.0364878
443 25 1 0.0622985 0.782261 0.676456 0.0355571
444 25 1 0.0622985 0.746239 0.776513 0.0359332
749 42 1 0.0622985 0.0268403 0.441677 0.0509295
756 42 1 0.0629322 0.940245 0.37053 0.0509224
742 42 2 -0.018412 0.00527099 0.327951 0.052271
752 42 1 0.0629322 0.0285047 0.285722 0.0531308
743 42 2 -0.0543881 0.99684 0.286667 0.052751
744 42 2 -0.0616365 0.947876 0.246271 0.0527493
745 42 2 -0.0616365 0.906738 0.246617 0.0522682
746 42 2 -0.0543881 0.91446 0.287359 0.0517876
747 42 2 -0.018412 0.963478 0.328301 0.0517822
753 42 1 0.0622985 0.941909 0.214574 0.0531237
754 42 1 0.0622985 0.868597 0.215188 0.0522665
755 42 1 0.0629322 0.881849 0.286949 0.0514158
739 42 2 -0.0616365 0.0208738 0.409976 0.0513039
740 42 2 -0.0616365 0.0620115 0.409635 0.051785
741 42 2 -0.0543881 0.0542896 0.368893 0.0522656
750 42 1 0.0622985 0.100152 0.441063 0.0517867
751 42 1 0.0629322 0.0869005 0.369302 0.0526374
748 42 2 -0.0543881 0.97191 0.369579 0.0513022
181 11 2 -0.0616365 0.378206 0.544217 0.0665041
182 11 2 -0.0616365 0.416893 0.494525 0.0665679
191 11 1 0.0622985 0.347637 0.546981 0.0661168
192 11 1 0.0622985 0.416579 0.458426 0.0662303
183 11 2 -0.0543881 0.456129 0.491037 0.0670657
184 11 2 -0.018412 0.457153 0.537259 0.0675063
185 11 2 -0.0543881 0.496344 0.534453 0.0680098
186 11 2 -0.0616365 0.496794 0.580784 0.0684437
187 11 2 -0.0616365 0.458108 0.630476 0.06838
188 11 2 -0.0543881 0.418871 0.633964 0.0678822
189 11 2 -0.018412 0.417848 0.587742 0.0674416
190 11 2 -0.0543881 0.378656 0.590548 0.0669381
193 11 1 0.0629322 0.486021 0.451859 0.0671077
194 11 1 0.0629322 0.526899 0.495989 0.0680674
195 11 1 0.0622985 0.527363 0.578019 0.0688311
196 11 1 0.0622985 0.458417 0.666574 0.0687176
198 11 1 0.0629322 0.348101 0.629011 0.0668805
197 11 1 0.0629322 0.388979 0.673141 0.0678402
307 18 2 -0.0616365 0.888543 0.113972 0.0982044
308 18 2 -0.0616365 0.872208 0.135105 0.0976305
309 18 2 -0.0543881 0.845827 0.192491 0.097567
310 18 2 -0.018412 0.83545 0.229486 0.0980772
311 18 2 -0.0543881 0.80896 0.287331 0.0980212
312 18 2 -0.0616365 0.798955 0.32353 0.098533
315 18 2 -0.018412 0.852049 0.208012 0.0986602
316 18 2 -0.0543881 0.878543 0.150171 0.0987162
317 18 1 0.0622985 0.909085 0.069301 0.0982544
318 18 1 0.0622985 0.879971 0.10696 0.0972317
319 18 1 0.0629322 0.833367 0.208221 0.0971149
320 18 1 0.0629322 0.795895 0.304621 0.0975766
321 18 1 0.0622985 0.778414 0.368201 0.098483
313 18 2 -0.0616365 0.815295 0.302398 0.0991068
314 18 2 -0.0543881 0.841675 0.245007 0.0991704
322 18 1 0.0622985 0.807527 0.330538 0.0995056
323 18 1 0.0629322 0.854131 0.229281 0.0996224
324 18 1 0.0629322 0.891608 0.132876 0.0991607
577 33 2 -0.0616365 0.460286 0.719049 0.113217
578 33 2 -0.0616365 0.440986 0.720432 0.11382
579 33 2 -0.0543881 0.479113 0.743911 0.11427
580 33 2 -0.018412 0.537072 0.766326 0.114122
581 33 2 -0.0543881 0.575991 0.790101 0.114569
582 33 2 -0.0616365 0.633468 0.812198 0.114415
583 33 2 -0.0616365 0.652763 0.81082 0.113812
584 33 2 -0.0543881 0.614636 0.787336 0.113362
585 33 2 -0.018412 0.556677 0.764925 0.11351
586 33 2 -0.0543881 0.517759 0.741151 0.113063
587 33 1 0.0622985 0.43064 0.700777 0.112866
588 33 1 0.0622985 0.396251 0.703237 0.11394
593 33 1 0.0629322 0.630512 0.78664 0.112894
594 33 1 0.0629322 0.532033 0.739691 0.112589
592 33 1 0.0622985 0.697503 0.82801 0.113692
589 33 1 0.0629322 0.463237 0.744607 0.114738
590 33 1 0.0629322 0.561716 0.791561 0.115043
591 33 1 0.0622985 0.663109 0.83047 0.114766
73 5 2 -0.0616365 0.868547 0.902654 0.128148
74 5 2 -0.0616365 0.829956 0.853117 0.128227
75 5 2 -0.0543881 0.823394 0.826846 0.128801
76 5 2 -0.018412 0.855396 0.849834 0.129304
77 5 2 -0.0543881 0.849315 0.823944 0.129884
78 5 2 -0.0616365 0.881453 0.847346 0.130379
79 5 2 -0.0616365 0.920044 0.896883 0.1303
80 5 2 -0.0543881 0.926607 0.923155 0.129726
81 5 2 -0.018412 0.894605 0.900167 0.129223
82 5 2 -0.0543881 0.900685 0.926056 0.128643
83 5 1 0.0622985 0.873691 0.923146 0.127701
84 5 1 0.0622985 0.804908 0.834859 0.127842
85 5 1 0.0629322 0.79303 0.788168 0.128854
86 5 1 0.0629322 0.819374 0.785217 0.129955
89 5 1 0.0629322 0.956971 0.961832 0.129673
90 5 1 0.0629322 0.930622 0.964784 0.128572
87 5 1 0.0622985 0.87631 0.826855 0.130826
88 5 1 0.0622985 0.945088 0.915142 0.130685
487 28 2 -0.0616365 0.329124 0.23241 0.159232
488 28 2 -0.0616365 0.269782 0.246817 0.159066
498 28 1 0.0622985 0.253611 0.236362 0.15861
497 28 1 0.0622985 0.359365 0.210681 0.158907
489 28 2 -0.0543881 0.230991 0.274721 0.159483
490 28 2 -0.018412 0.251105 0.288568 0.160074
491 28 2 -0.0543881 0.212669 0.316636 0.160499
492 28 2 -0.0616365 0.233374 0.330093 0.161084
493 28 2 -0.0616365 0.292716 0.315681 0.161251
494 28 2 -0.0543881 0.331507 0.287782 0.160833
495 28 2 -0.018412 0.311397 0.27393 0.160243
499 28 1 0.0629322 0.184783 0.285631 0.159345
500 28 1 0.0629322 0.166156 0.328237 0.160378
502 28 1 0.0622985 0.308892 0.326141 0.161706
496 28 2 -0.0543881 0.349834 0.245866 0.159817
503 28 1 0.0629322 0.37772 0.276867 0.160971
504 28 1 0.0629322 0.396347 0.234261 0.159938
501 28 1 0.0622985 0.203132 0.351816 0.161409
829 47 2 -0.0616365 0.0339979 0.768609 0.175032
838 47 2 -0.0543881 0.0428703 0.705989 0.175087
846 47 1 0.0629322 0.0126332 0.675333 0.174843
839 47 1 0.0622985 0.997331 0.785972 0.17475
834 47 2 -0.0616365 0.184751 0.637643 0.176179
835 47 2 -0.0616365 0.146642 0.597496 0.175872
836 47 2 -0.0543881 0.0995653 0.619866 0.175509
843 47 1 0.0622985 0.221418 0.62028 0.176461
844 47 1 0.0622985 0.153504 0.548732 0.175914
845 47 1 0.0629322 0.0702651 0.587792 0.175273
830 47 2 -0.0616365 0.0721068 0.808755 0.175339
831 47 2 -0.0543881 0.119184 0.786386 0.175702
832 47 2 -0.018412 0.128734 0.72352 0.175761
833 47 2 -0.0543881 0.175879 0.700263 0.176124
837 47 2 -0.018412 0.0900153 0.682732 0.175449
840 47 1 0.0622985 0.0652445 0.857515 0.175297
841 47 1 0.0629322 0.148488 0.81846 0.175938
842 47 1 0.0629322 0.20612 0.730914 0.176367
250 14 1 0.0622985 0.462382 0.325718 0.190403
235 14 2 -0.0616365 0.621276 0.533916 0.190828
241 14 2 -0.0616365 0.491965 0.354904 0.190671
242 14 2 -0.0543881 0.518186 0.406288 0.190406
243 14 2 -0.018412 0.556527 0.444519 0.190745
244 14 2 -0.0543881 0.583271 0.496385 0.190485
245 14 1 0.0622985 0.641667 0.573908 0.190621
251 14 1 0.0629322 0.508463 0.416338 0.189932
252 14 1 0.0629322 0.574622 0.507927 0.190012
249 14 1 0.0622985 0.483333 0.301092 0.191484
236 14 2 -0.0616365 0.633036 0.520096 0.191435
237 14 2 -0.0543881 0.606814 0.468713 0.1917
238 14 2 -0.018412 0.568473 0.430481 0.191361
239 14 2 -0.0543881 0.541729 0.378615 0.19162
240 14 2 -0.0616365 0.50372 0.341084 0.191277
246 14 1 0.0622985 0.662618 0.549283 0.191702
247 14 1 0.0629322 0.616537 0.458662 0.192174
248 14 1 0.0629322 0.550379 0.367074 0.192094
397 23 2 -0.0616365 0.164601 0.835236 0.220935
398 23 2 -0.0616365 0.119734 0.848347 0.221362
399 23 2 -0.0543881 0.135282 0.855891 0.221973
400 23 2 -0.018412 0.195956 0.850411 0.222164
401 23 2 -0.0543881 0.212373 0.857865 0.222777
403 23 2 -0.0616365 0.317764 0.839152 0.222533
404 23 2 -0.0543881 0.30222 0.831607 0.221922
405 23 2 -0.018412 0.241542 0.837087 0.221731
406 23 2 -0.0543881 0.225129 0.829638 0.221118
407 23 1 0.0622985 0.152549 0.829356 0.220459
408 23 1 0.0622985 0.0725934 0.852722 0.22122
409 23 1 0.0629322 0.0995926 0.866119 0.2223
414 23 1 0.0629322 0.259541 0.819379 0.220778
412 23 1 0.0622985 0.364904 0.834781 0.222675
413 23 1 0.0629322 0.337905 0.821379 0.221596
402 23 2 -0.0616365 0.272902 0.852262 0.22296
410 23 1 0.0629322 0.177957 0.868124 0.223117
411 23 1 0.0622985 0.284948 0.858147 0.223436
636 36 2 -0.0616365 0.329701 0.11299 0.236763
645 36 1 0.0622985 0.289883 0.0914478 0.236565
646 36 1 0.0622985 0.327719 0.189285 0.23615
631 36 2 -0.0616365 0.514048 0.168261 0.238027
632 36 2 -0.0616365 0.492815 0.113363 0.23826
633 36 2 -0.0543881 0.441663 0.0857497 0.238005
634 36 2 -0.018412 0.41109 0.112735 0.237513
635 36 2 -0.0543881 0.359566 0.0855587 0.237251
637 36 2 -0.0616365 0.350934 0.167889 0.23653
638 36 2 -0.0543881 0.402086 0.195502 0.236785
639 36 2 -0.018412 0.432659 0.168516 0.237277
640 36 2 -0.0543881 0.484184 0.195688 0.237539
641 36 1 0.0622985 0.553867 0.189803 0.238225
642 36 1 0.0622985 0.51603 0.0919662 0.23864
643 36 1 0.0629322 0.425756 0.0428612 0.238193
644 36 1 0.0629322 0.342303 0.0426702 0.237427
647 36 1 0.0629322 0.417998 0.23839 0.236597
648 36 1 0.0629322 0.501451 0.238581 0.237363
47 3 1 0.0622985 0.315577 0.76337 0.25135
48 3 1 0.0622985 0.20793 0.797036 0.251334
37 3 2 -0.0616365 0.288677 0.762338 0.251765
38 3 2 -0.0616365 0.228276 0.781229 0.251756
39 3 2 -0.0543881 0.193783 0.779883 0.252288
40 3 2 -0.018412 0.219313 0.759596 0.252838
41 3 2 -0.0543881 0.185251 0.757954 0.253378
42 3 2 -0.0616365 0.211323 0.737663 0.25392
43 3 2 -0.0616365 0.271724 0.718767 0.253929
44 3 2 -0.0543881 0.306213 0.720118 0.253396
45 3 2 -0.018412 0.280687 0.7404 0.252847
46 3 2 -0.0543881 0.314749 0.742046 0.252307
49 3 1 0.0629322 0.146665 0.794821 0.252272
50 3 1 0.0629322 0.137993 0.772534 0.253379
51 3 1 0.0622985 0.184424 0.73663 0.254334
52 3 1 0.0622985 0.29207 0.702964 0.254351
53 3 1 0.0629322 0.353335 0.705179 0.253412
54 3 1 0.0629322 0.362008 0.727467 0.252305
860 48 1 0.0629322 0.0477408 0.324726 0.267462
861 48 1 0.0622985 0.157988 0.338715 0.267316
847 48 2 -0.0616365 0.0146478 0.164205 0.268945
850 48 2 -0.018412 0.0572089 0.252492 0.268126
851 48 2 -0.0543881 0.0792102 0.296431 0.267718
852 48 2 -0.0616365 0.141603 0.304544 0.267634
853 48 2 -0.0616365 0.182777 0.268877 0.267956
854 48 2 -0.0543881 0.161663 0.225002 0.268363
855 48 2 -0.018412 0.0990423 0.216257 0.268453
856 48 2 -0.0543881 0.077041 0.172322 0.268861
862 48 1 0.0622985 0.231364 0.275153 0.267891
863 48 1 0.0629322 0.194528 0.197571 0.268611
864 48 1 0.0629322 0.10851 0.144023 0.269117
848 48 2 -0.0616365 0.973474 0.199872 0.268623
849 48 2 -0.0543881 0.994588 0.243747 0.268216
857 48 1 0.0622985 0.998263 0.130034 0.269263
858 48 1 0.0622985 0.924887 0.193596 0.268688
859 48 1 0.0629322 0.961723 0.271178 0.267968
465 26 1 0.0622985 0.927898 0.314585 0.2824
466 26 1 0.0622985 0.0267448 0.35595 0.282753
455 26 2 -0.0543881 0.87651 0.357242 0.283118
456 26 2 -0.0616365 0.929781 0.343449 0.282801
457 26 2 -0.0616365 0.985243 0.366655 0.282999
464 26 1 0.0629322 0.833603 0.338683 0.282956
467 26 1 0.0629322 0.0313515 0.421427 0.283661
451 26 2 -0.0616365 0.882722 0.469054 0.284673
452 26 2 -0.0616365 0.827255 0.445843 0.284475
453 26 2 -0.0543881 0.824908 0.40878 0.28396
454 26 2 -0.018412 0.878074 0.394459 0.283636
458 26 2 -0.0543881 0.98759 0.403723 0.283514
459 26 2 -0.018412 0.934428 0.418039 0.283837
460 26 2 -0.0543881 0.935988 0.455261 0.284356
461 26 1 0.0622985 0.884605 0.497913 0.285074
462 26 1 0.0622985 0.785754 0.456552 0.284721
463 26 1 0.0629322 0.781151 0.391071 0.283813
468 26 1 0.0629322 0.978895 0.473815 0.284518
725 41 2 -0.0543881 0.660462 0.55358 0.298859
734 41 1 0.0629322 0.615446 0.539583 0.299009
735 41 1 0.0622985 0.637711 0.543707 0.297911
724 41 2 -0.018412 0.705279 0.569096 0.299287
726 41 2 -0.0616365 0.672827 0.55584 0.298237
727 41 2 -0.0616365 0.7301 0.573612 0.298035
728 41 2 -0.0543881 0.775158 0.589179 0.298454
729 41 2 -0.018412 0.76347 0.587155 0.299081
736 41 1 0.0622985 0.739782 0.575386 0.29755
737 41 1 0.0629322 0.819629 0.602953 0.298287
738 41 1 0.0629322 0.853308 0.616664 0.29936
733 41 1 0.0629322 0.649121 0.553294 0.300082
721 41 2 -0.0616365 0.795922 0.600411 0.300131
722 41 2 -0.0616365 0.738649 0.582635 0.300334
723 41 2 -0.0543881 0.693592 0.567073 0.299915
730 41 2 -0.0543881 0.808287 0.602667 0.299509
731 41 1 0.0622985 0.831039 0.61254 0.300457
732 41 1 0.0622985 0.728972 0.580861 0.300818
127 8 2 -0.0616365 0.255844 0.223956 0.314359
128 8 2 -0.0616365 0.219763 0.203942 0.314839
129 8 2 -0.0543881 0.176688 0.24286 0.315096
130 8 2 -0.018412 0.169171 0.302334 0.314876
135 8 2 -0.018412 0.205829 0.322666 0.314388
136 8 2 -0.0543881 0.24895 0.282938 0.314135
137 8 1 0.0622985 0.289396 0.193696 0.314159
138 8 1 0.0622985 0.225093 0.158034 0.315014
144 8 1 0.0629322 0.277554 0.297754 0.313759
131 8 2 -0.0543881 0.126051 0.342062 0.315129
132 8 2 -0.0616365 0.119156 0.401044 0.314904
133 8 2 -0.0616365 0.155237 0.421058 0.314424
134 8 2 -0.0543881 0.198312 0.38214 0.314168
141 8 1 0.0622985 0.0856041 0.431304 0.315105
142 8 1 0.0622985 0.149907 0.466966 0.314249
143 8 1 0.0629322 0.22608 0.398593 0.313793
139 8 1 0.0629322 0.14892 0.226407 0.315471
140 8 1 0.0629322 0.0974461 0.327246 0.315504
289 17 2 -0.0616365 0.609229 0.059101 0.346223
290 17 2 -0.0616365 0.666588 0.0337754 0.346136
298 17 2 -0.0543881 0.558541 0.0332115 0.345942
299 17 1 0.0622985 0.603863 0.099029 0.346509
306 17 1 0.0629322 0.514098 0.0536439 0.346015
300 17 1 0.0622985 0.706084 0.053894 0.346355
292 17 2 -0.018412 0.62289 0.955884 0.345482
293 17 2 -0.0543881 0.628957 0.904287 0.345111
294 17 2 -0.0616365 0.578269 0.878397 0.34483
295 17 2 -0.0616365 0.52091 0.903723 0.344916
296 17 2 -0.0543881 0.514089 0.955006 0.345284
297 17 2 -0.018412 0.564613 0.981614 0.34557
303 17 1 0.0622985 0.583635 0.838469 0.344544
304 17 1 0.0622985 0.481414 0.883604 0.344698
305 17 1 0.0629322 0.468913 0.974147 0.345346
291 17 2 -0.0543881 0.673409 0.982492 0.345769
301 17 1 0.0629322 0.71859 0.963351 0.345706
302 17 1 0.0629322 0.6734 0.883859 0.345038
599 34 2 -0.0543881 0.738768 0.016808 0.361586
600 34 2 -0.0616365 0.716071 0.0758359 0.361531
601 34 2 -0.0616365 0.739332 0.114682 0.361088
602 34 2 -0.0543881 0.785349 0.0946038 0.3607
603 34 2 -0.018412 0.808692 0.0353622 0.360749
604 34 2 -0.0543881 0.854982 0.0144432 0.360362
609 34 1 0.0622985 0.680245 0.091416 0.361833
610 34 1 0.0622985 0.7217 0.160649 0.361045
611 34 1 0.0629322 0.802948 0.125619 0.360357
612 34 1 0.0629322 0.873727 0.04413 0.360014
595 34 2 -0.0616365 0.877679 0.955415 0.360417
596 34 2 -0.0616365 0.854418 0.916565 0.360859
597 34 2 -0.0543881 0.808401 0.936643 0.361248
598 34 2 -0.018412 0.785058 0.995889 0.361198
605 34 1 0.0622985 0.913505 0.939835 0.360114
606 34 1 0.0622985 0.872053 0.870598 0.360902
607 34 1 0.0629322 0.790801 0.905633 0.36159
608 34 1 0.0629322 0.720018 0.987117 0.361934
100 6 2 -0.0543881 0.632167 0.0984147 0.375623
107 6 1 0.0629322 0.530378 0.166624 0.375696
108 6 1 0.0629322 0.608438 0.101962 0.375191
91 6 2 -0.0616365 0.685693 0.0644123 0.375653
101 6 1 0.0622985 0.702978 0.042029 0.375248
94 6 2 -0.018412 0.640844 0.122353 0.3767
95 6 2 -0.0543881 0.617833 0.151585 0.377219
96 6 2 -0.0616365 0.564308 0.185588 0.377189
97 6 2 -0.0616365 0.53312 0.190799 0.376641
98 6 2 -0.0543881 0.555376 0.162027 0.376121
99 6 2 -0.018412 0.609156 0.127647 0.376143
104 6 1 0.0629322 0.641563 0.148038 0.377651
105 6 1 0.0622985 0.547022 0.207971 0.377595
106 6 1 0.0622985 0.491442 0.217262 0.376617
92 6 2 -0.0616365 0.71688 0.0592007 0.376201
93 6 2 -0.0543881 0.694624 0.0879734 0.376722
102 6 1 0.0622985 0.758554 0.0327382 0.376225
103 6 1 0.0629322 0.719622 0.0833758 0.377146
541 31 2 -0.0616365 0.0425838 0.642568 0.407587
544 31 2 -0.018412 0.0521292 0.515439 0.407502
545 31 2 -0.0543881 0.0563585 0.451891 0.407455
546 31 2 -0.0616365 0.019914 0.41993 0.407045
549 31 2 -0.018412 0.0103685 0.547059 0.407129
550 31 2 -0.0543881 0.00614382 0.610607 0.407177
555 31 1 0.0622985 0.0236703 0.370757 0.407013
547 31 2 -0.0616365 0.978813 0.45105 0.406678
548 31 2 -0.0543881 0.974047 0.514216 0.406719
556 31 1 0.0622985 0.950417 0.426215 0.406358
557 31 1 0.0629322 0.941668 0.537732 0.406429
558 31 1 0.0629322 0.974297 0.635714 0.406894
551 31 1 0.0622985 0.038832 0.691745 0.407619
542 31 2 -0.0616365 0.083685 0.611448 0.407954
543 31 2 -0.0543881 0.0884555 0.548287 0.407912
552 31 1 0.0622985 0.112085 0.636283 0.408273
553 31 1 0.0629322 0.12083 0.524766 0.408203
554 31 1 0.0629322 0.0882054 0.426784 0.407738
785 44 1 0.0622985 0.368411 0.310124 0.423551
786 44 1 0.0622985 0.439067 0.310647 0.422672
781 44 2 -0.0616365 0.307555 0.555931 0.422759
782 44 2 -0.0543881 0.303575 0.504652 0.423131
790 44 1 0.0622985 0.279687 0.595604 0.422855
791 44 1 0.0629322 0.272338 0.505275 0.423514
775 44 2 -0.0616365 0.371553 0.350025 0.423261
776 44 2 -0.0616365 0.411195 0.350316 0.422767
777 44 2 -0.0543881 0.415178 0.401599 0.422395
778 44 2 -0.018412 0.379516 0.453274 0.422513
779 44 2 -0.0543881 0.382968 0.505239 0.422143
780 44 2 -0.0616365 0.347201 0.556227 0.422266
783 44 2 -0.018412 0.339233 0.452978 0.423014
784 44 2 -0.0543881 0.335782 0.401012 0.423384
787 44 1 0.0629322 0.446416 0.400971 0.422012
788 44 1 0.0629322 0.413673 0.506321 0.421755
789 44 1 0.0622985 0.350338 0.596127 0.421976
792 44 1 0.0629322 0.305076 0.39993 0.423771
217 13 2 -0.0616365 0.865123 0.614923 0.438933
218 13 2 -0.0616365 0.892731 0.606478 0.43837
219 13 2 -0.0543881 0.873581 0.640389 0.437868
226 13 2 -0.0543881 0.818287 0.657302 0.438996
227 13 1 0.0622985 0.879998 0.588547 0.439324
228 13 1 0.0622985 0.929203 0.573499 0.43832
229 13 1 0.0629322 0.895701 0.633154 0.437432
234 13 1 0.0629322 0.797273 0.663259 0.43944
220 13 2 -0.018412 0.826527 0.68321 0.437924
221 13 2 -0.0543881 0.806713 0.717699 0.437425
222 13 2 -0.0616365 0.759878 0.760078 0.437488
223 13 2 -0.0616365 0.732269 0.768523 0.438051
224 13 2 -0.0543881 0.751419 0.734611 0.438553
225 13 2 -0.018412 0.798473 0.691791 0.438497
230 13 1 0.0629322 0.827732 0.711741 0.436981
231 13 1 0.0622985 0.745002 0.786454 0.437098
232 13 1 0.0622985 0.695797 0.801502 0.438101
233 13 1 0.0629322 0.7293 0.741846 0.438989
358 20 1 0.0622985 0.563517 0.186456 0.468148
353 20 1 0.0622985 0.310342 0.0692146 0.469428
343 20 2 -0.0616365 0.359593 0.070597 0.469389
344 20 2 -0.0616365 0.395301 0.0323426 0.469745
345 20 2 -0.0543881 0.458553 0.0341662 0.469694
346 20 2 -0.018412 0.486889 0.074317 0.469286
347 20 2 -0.0543881 0.55046 0.0767272 0.46923
348 20 2 -0.0616365 0.57791 0.116905 0.468822
349 20 2 -0.0616365 0.542197 0.155155 0.468466
350 20 2 -0.0543881 0.478949 0.153336 0.468516
351 20 2 -0.018412 0.450609 0.113181 0.468924
352 20 2 -0.0543881 0.387038 0.110771 0.468981
354 20 1 0.0622985 0.373981 0.00104595 0.470062
355 20 1 0.0629322 0.485689 0.00392913 0.469976
356 20 1 0.0629322 0.579119 0.0471951 0.469504
357 20 1 0.0622985 0.627156 0.118283 0.468783
359 20 1 0.0629322 0.451809 0.183573 0.468234
360 20 1 0.0629322 0.358383 0.140307 0.468707
699 39 1 0.0622985 0.217044 0.0332479 0.483893
689 39 2 -0.0543881 0.219754 0.93622 0.484028
697 39 1 0.0629322 0.253265 0.818737 0.483909
698 39 1 0.0629322 0.256062 0.929994 0.483698
691 39 2 -0.0616365 0.151385 0.00391581 0.484557
700 39 1 0.0622985 0.134277 0.049501 0.484642
685 39 2 -0.0616365 0.145924 0.786454 0.484969
686 39 2 -0.0616365 0.192364 0.777336 0.484548
687 39 2 -0.0543881 0.217003 0.826764 0.484235
688 39 2 -0.018412 0.19547 0.885992 0.484339
690 39 2 -0.0616365 0.197825 0.994793 0.484137
692 39 2 -0.0543881 0.126746 0.954483 0.48487
693 39 2 -0.018412 0.148279 0.89526 0.484766
694 39 2 -0.0543881 0.123995 0.845032 0.485077
695 39 1 0.0622985 0.126705 0.748004 0.485212
696 39 1 0.0622985 0.209472 0.731751 0.484463
701 39 1 0.0629322 0.0904837 0.962514 0.485196
702 39 1 0.0629322 0.0876915 0.851253 0.485407
1 1 2 -0.0616365 0.609579 0.46502 0.499951
2 1 2 -0.0616365 0.611603 0.528214 0.499981
8 1 2 -0.0543881 0.442309 0.438426 0.499987
9 1 2 -0.018412 0.498972 0.467899 0.499985
10 1 2 -0.0543881 0.553635 0.435024 0.499953
11 1 1 0.0622985 0.651526 0.439003 0.499927
12 1 1 0.0622985 0.655133 0.55162 0.49998
17 1 1 0.0629322 0.439813 0.389084 0.499964
18 1 1 0.0629322 0.552975 0.385623 0.49993
3 1 2 -0.0543881 0.557691 0.561575 0.500013
4 1 2 -0.018412 0.501028 0.532102 0.500015
5 1 2 -0.0543881 0.446366 0.564976 0.500047
6 1 2 -0.0616365 0.390421 0.53498 0.500049
7 1 2 -0.0616365 0.388397 0.471787 0.500019
13 1 1 0.0629322 0.560188 0.610916 0.500036
14 1 1 0.0629322 0.447025 0.614377 0.50007
15 1 1 0.0622985 0.348474 0.561002 0.500073
16 1 1 0.0622985 0.344868 0.44838 0.50002
885 50 2 -0.0543881 0.901163 0.447489 0.515654
886 50 2 -0.018412 0.855105 0.474474 0.515303
887 50 2 -0.0543881 0.861444 0.482242 0.514672
888 50 2 -0.0616365 0.815227 0.509154 0.51433
889 50 2 -0.0616365 0.762115 0.528641 0.514614
890 50 2 -0.0543881 0.755089 0.52126 0.515241
891 50 2 -0.018412 0.801147 0.494275 0.515592
895 50 1 0.0629322 0.942978 0.431977 0.51544
896 50 1 0.0629322 0.902609 0.467303 0.514442
897 50 1 0.0622985 0.820747 0.514875 0.513843
898 50 1 0.0622985 0.726103 0.549601 0.514349
899 50 1 0.0629322 0.713269 0.536772 0.515455
883 50 2 -0.0616365 0.841025 0.459595 0.516564
884 50 2 -0.0616365 0.894132 0.440108 0.51628
892 50 2 -0.0543881 0.794803 0.486512 0.516222
893 50 1 0.0622985 0.835504 0.453874 0.517052
894 50 1 0.0622985 0.930149 0.419148 0.516546
900 50 1 0.0629322 0.753643 0.501446 0.516452
415 24 2 -0.0616365 0.0924665 0.0620657 0.531072
416 24 2 -0.0616365 0.0691645 0.089265 0.530551
417 24 2 -0.0543881 0.0949495 0.142922 0.53033
418 24 2 -0.018412 0.144414 0.170067 0.53063
419 24 2 -0.0543881 0.170885 0.224042 0.530414
420 24 2 -0.0616365 0.220031 0.250432 0.530717
421 24 2 -0.0616365 0.243333 0.223237 0.531239
422 24 2 -0.0543881 0.217548 0.169576 0.531459
423 24 2 -0.018412 0.168089 0.142436 0.53116
424 24 2 -0.0543881 0.141612 0.0884555 0.531375
425 24 1 0.0622985 0.0724297 0.0202869 0.531244
426 24 1 0.0622985 0.030901 0.0687598 0.530314
427 24 1 0.0629322 0.0761224 0.163505 0.529922
428 24 1 0.0629322 0.153309 0.245962 0.530007
429 24 1 0.0622985 0.240073 0.292211 0.530545
430 24 1 0.0622985 0.281597 0.243743 0.531475
432 24 1 0.0629322 0.159193 0.0665406 0.531782
431 24 1 0.0629322 0.23638 0.148998 0.531868
757 43 2 -0.0616365 0.506176 0.928089 0.54687
758 43 2 -0.0616365 0.488636 0.887811 0.547326
759 43 2 -0.0543881 0.473369 0.827973 0.547179
760 43 2 -0.018412 0.475466 0.807664 0.546574
761 43 2 -0.0543881 0.460254 0.747617 0.546418
762 43 2 -0.0616365 0.462573 0.728163 0.545814
763 43 2 -0.0616365 0.480113 0.768436 0.545358
764 43 2 -0.0543881 0.49538 0.828278 0.545505
765 43 2 -0.018412 0.493283 0.848588 0.546111
766 43 2 -0.0543881 0.508495 0.908634 0.546266
767 43 1 0.0622985 0.518072 0.974688 0.546984
769 43 1 0.0629322 0.459777 0.797168 0.547541
770 43 1 0.0629322 0.446443 0.715488 0.546768
771 43 1 0.0622985 0.450677 0.681563 0.5457
772 43 1 0.0622985 0.481937 0.753343 0.544888
773 43 1 0.0629322 0.508973 0.859079 0.545143
774 43 1 0.0629322 0.522311 0.940763 0.545916
768 43 1 0.0622985 0.486817 0.902909 0.547796
163 10 2 -0.0616365 0.036845 0.0064667 0.561633
164 10 2 -0.0616365 0.024612 0.00317423 0.562253
180 10 1 0.0629322 0.00699908 0.0388502 0.560762
165 10 2 -0.0543881 0.972178 0.0301779 0.562488
166 10 2 -0.018412 0.931286 0.0608288 0.562104
167 10 2 -0.0543881 0.878329 0.0882372 0.562333
168 10 2 -0.0616365 0.838156 0.118538 0.561946
169 10 2 -0.0616365 0.850389 0.121826 0.561326
170 10 2 -0.0543881 0.902823 0.0948267 0.561091
171 10 2 -0.018412 0.943715 0.0641713 0.561474
172 10 2 -0.0543881 0.996671 0.0367628 0.561246
175 10 1 0.0629322 0.963397 0.0271265 0.562973
176 10 1 0.0629322 0.867997 0.0861453 0.562816
177 10 1 0.0622985 0.797345 0.139539 0.56213
178 10 1 0.0622985 0.819142 0.145401 0.561024
179 10 1 0.0629322 0.911604 0.0978736 0.560606
173 10 1 0.0622985 0.0776552 0.985461 0.561449
174 10 1 0.0622985 0.055854 0.979599 0.562555
341 19 1 0.0629322 0.260287 0.630412 0.592342
334 19 2 -0.0543881 0.319137 0.727803 0.591882
342 19 1 0.0629322 0.289109 0.706343 0.591553
325 19 2 -0.0616365 0.352549 0.778828 0.591706
326 19 2 -0.0616365 0.391285 0.807086 0.592119
335 19 1 0.0622985 0.348283 0.796454 0.591246
336 19 1 0.0622985 0.41732 0.84681 0.591983
331 19 2 -0.0616365 0.296213 0.630416 0.593249
332 19 2 -0.0543881 0.290783 0.653104 0.592659
340 19 1 0.0622985 0.270178 0.590689 0.593386
330 19 2 -0.0616365 0.334949 0.658671 0.593662
339 19 1 0.0622985 0.339215 0.641049 0.594122
333 19 2 -0.018412 0.324071 0.704397 0.592474
327 19 2 -0.0543881 0.396715 0.784394 0.59271
328 19 2 -0.018412 0.363431 0.733106 0.592894
329 19 2 -0.0543881 0.368361 0.709695 0.593486
337 19 1 0.0629322 0.427211 0.807086 0.593026
338 19 1 0.0629322 0.398393 0.731155 0.593815
566 32 2 -0.0543881 0.0280133 0.332184 0.607648
567 32 2 -0.018412 0.0242069 0.274598 0.607922
559 32 2 -0.0616365 0.973265 0.177357 0.608064
568 32 2 -0.0543881 0.976375 0.234438 0.607788
569 32 1 0.0622985 0.935992 0.146742 0.607957
576 32 1 0.0629322 0.94109 0.247435 0.607467
564 32 2 -0.0616365 0.120484 0.353895 0.608199
565 32 2 -0.0616365 0.0758632 0.371558 0.607786
574 32 1 0.0622985 0.078237 0.415992 0.607571
575 32 1 0.0629322 0.993579 0.346791 0.607325
560 32 2 -0.0616365 0.0178857 0.159694 0.608477
561 32 2 -0.0543881 0.0657356 0.199067 0.608615
562 32 2 -0.018412 0.069542 0.256653 0.608341
563 32 2 -0.0543881 0.117374 0.296809 0.608475
570 32 1 0.0622985 0.0155119 0.115259 0.608692
571 32 1 0.0629322 0.10017 0.184455 0.608938
572 32 1 0.0629322 0.152659 0.283816 0.608796
573 32 1 0.0622985 0.157756 0.384509 0.608306
65 4 1 0.0622985 0.252347 0.331148 0.622591
62 4 2 -0.0543881 0.436998 0.317769 0.623567
64 4 2 -0.0543881 0.339415 0.321652 0.62303
70 4 1 0.0622985 0.521156 0.320447 0.624068
71 4 1 0.0629322 0.448107 0.274598 0.623353
72 4 1 0.0629322 0.348911 0.278545 0.622807
55 4 2 -0.0616365 0.284653 0.351248 0.622906
56 4 2 -0.0616365 0.271465 0.406465 0.623186
57 4 2 -0.0543881 0.313003 0.432232 0.623591
66 4 1 0.0622985 0.228845 0.429553 0.623089
67 4 1 0.0629322 0.301893 0.475402 0.623805
58 4 2 -0.018412 0.368301 0.40305 0.623721
59 4 2 -0.0543881 0.410585 0.428348 0.624127
61 4 2 -0.0616365 0.478535 0.343531 0.623972
63 4 2 -0.018412 0.381699 0.34695 0.623437
60 4 2 -0.0616365 0.465347 0.398752 0.624252
68 4 1 0.0629322 0.40109 0.471459 0.62435
69 4 1 0.0622985 0.497654 0.418853 0.624567
515 29 1 0.0622985 0.628652 0.725566 0.654287
516 29 1 0.0622985 0.658134 0.788741 0.6534
505 29 2 -0.0616365 0.673546 0.746144 0.654268
506 29 2 -0.0616365 0.69009 0.781592 0.65377
507 29 2 -0.0543881 0.747767 0.808 0.653747
508 29 2 -0.018412 0.789651 0.79926 0.654221
509 29 2 -0.0543881 0.84786 0.825495 0.654204
510 29 2 -0.0616365 0.888952 0.816354 0.654679
511 29 2 -0.0616365 0.872413 0.780906 0.655177
512 29 2 -0.0543881 0.814735 0.754502 0.655201
513 29 2 -0.018412 0.772847 0.763243 0.654726
514 29 2 -0.0543881 0.714643 0.737003 0.654743
517 29 1 0.0629322 0.759864 0.83555 0.653354
518 29 1 0.0629322 0.861608 0.853335 0.653819
519 29 1 0.0622985 0.933846 0.836937 0.65466
520 29 1 0.0622985 0.904369 0.773757 0.655547
521 29 1 0.0629322 0.802639 0.726948 0.655593
522 29 1 0.0629322 0.700891 0.709163 0.655128
826 46 1 0.0622985 0.566418 0.306245 0.668727
812 46 2 -0.0616365 0.646397 0.135432 0.670775
813 46 2 -0.0543881 0.596287 0.133941 0.670386
814 46 2 -0.018412 0.587878 0.17933 0.669945
815 46 2 -0.0543881 0.537723 0.178507 0.669549
816 46 2 -0.0616365 0.530037 0.223979 0.669113
817 46 2 -0.0616365 0.572353 0.270819 0.669066
818 46 2 -0.0543881 0.622463 0.272311 0.669456
819 46 2 -0.018412 0.630871 0.226921 0.669897
822 46 1 0.0622985 0.652331 0.100002 0.671115
823 46 1 0.0629322 0.563712 0.0969777 0.670429
824 46 1 0.0629322 0.504179 0.142281 0.669579
825 46 1 0.0622985 0.491005 0.222769 0.66881
827 46 1 0.0629322 0.655037 0.309274 0.669412
811 46 2 -0.0616365 0.688712 0.182273 0.670729
820 46 2 -0.0543881 0.681027 0.227744 0.670293
821 46 1 0.0622985 0.727744 0.183478 0.671032
828 46 1 0.0629322 0.71457 0.26397 0.670263
254 15 2 -0.0616365 0.135942 0.888188 0.684631
264 15 1 0.0622985 0.157393 0.86168 0.684274
265 15 1 0.0629322 0.0465993 0.854768 0.684428
269 15 1 0.0629322 0.0784007 0.0202326 0.686309
268 15 1 0.0622985 0.967607 0.0133203 0.686463
253 15 2 -0.0616365 0.170967 0.925852 0.685
255 15 2 -0.0543881 0.0732074 0.884446 0.684721
256 15 2 -0.018412 0.0447075 0.918366 0.685181
260 15 2 -0.0543881 0.0517927 0.990555 0.686016
261 15 2 -0.018412 0.0802925 0.956634 0.685556
262 15 2 -0.0543881 0.14335 0.959872 0.68546
263 15 1 0.0622985 0.219818 0.928803 0.684931
270 15 1 0.0629322 0.171472 0.989045 0.685743
257 15 2 -0.0543881 0.98165 0.915128 0.685277
258 15 2 -0.0616365 0.954033 0.949149 0.685736
259 15 2 -0.0616365 0.989058 0.986812 0.686105
266 15 1 0.0629322 0.953528 0.885955 0.684993
267 15 1 0.0622985 0.905182 0.946198 0.685805
387 22 2 -0.018412 0.730341 0.313776 0.716252
388 22 2 -0.0543881 0.773088 0.298428 0.715803
389 22 1 0.0622985 0.825827 0.329065 0.715036
396 22 1 0.0629322 0.791438 0.25256 0.715779
379 22 2 -0.0616365 0.792725 0.341575 0.715381
380 22 2 -0.0616365 0.769905 0.400576 0.715402
381 22 2 -0.0543881 0.72739 0.416583 0.715846
382 22 2 -0.018412 0.707157 0.373722 0.716274
390 22 1 0.0622985 0.785162 0.43421 0.715074
391 22 1 0.0629322 0.710081 0.462905 0.715855
394 22 1 0.0622985 0.65234 0.253288 0.717452
385 22 2 -0.0616365 0.667593 0.286922 0.717124
386 22 2 -0.0543881 0.710109 0.270919 0.71668
395 22 1 0.0629322 0.727417 0.224597 0.716671