ITEM: TIMESTEP
0
ITEM: NUMBER OF ATOMS
900
ITEM: BOX BOUNDS pp pp pp
0.0000000000000000e+00 2.1989592999999999e+01
0.0000000000000000e+00 2.1989592999999999e+01
0.0000000000000000e+00 2.1989592920000000e+03
ITEM: ATOMS id mol type q xs ys zs
438 25 2 -0.0616365 0.571793 0.634712 0.0372579
439 25 2 -0.0616365 0.591272 0.580605 0.0370545
440 25 2 -0.0543881 0.638218 0.577676 0.0366655
441 25 2 -0.018412 0.666111 0.628862 0.0364763
447 25 1 0.0622985 0.533761 0.637022 0.0375731
448 25 1 0.0622985 0.569019 0.539089 0.037205
449 25 1 0.0629322 0.6535 0.533458 0.0365045
442 25 2 -0.0543881 0.713284 0.626493 0.0360857
450 25 1 0.0629322 0.729599 0.582948 0.0359168
436 25 2 -0.018412 0.64639 0.683638 0.0366822
437 25 2 -0.0543881 0.599217 0.686007 0.0370727
445 25 1 0.0629322 0.659002 0.779042 0.036654
446 25 1 0.0629322 0.582902 0.729552 0.0372416
433 25 2 -0.0616365 0.740708 0.677788 0.0359005
434 25 2 -0.0616365 0.721229 0.731895 0.0361039
435 25 2 -0.0543881 0.674283 0.734824 0.036493
443 25 1 0.0622985 0.77874 0.675478 0.0355853
444 25 1 0.0622985 0.743483 0.773411 0.0359535
756 42 1 0.0629322 0.940414 0.368624 0.050951
742 42 2 -0.018412 0.00444141 0.327957 0.0522612
752 42 1 0.0629322 0.0283358 0.287626 0.0531022
743 42 2 -0.0543881 0.996563 0.288437 0.052723
744 42 2 -0.0616365 0.949457 0.249612 0.0527209
745 42 2 -0.0616365 0.909814 0.249944 0.0522573
746 42 2 -0.0543881 0.917192 0.289102 0.0517948
747 42 2 -0.018412 0.964308 0.328293 0.0517919
753 42 1 0.0622985 0.943429 0.217871 0.0530952
754 42 1 0.0622985 0.871676 0.218472 0.0522561
755 42 1 0.0629322 0.884663 0.288829 0.0514221
749 42 1 0.0622985 0.0253203 0.438379 0.050958
739 42 2 -0.0616365 0.0192926 0.406638 0.0513323
740 42 2 -0.0616365 0.0589351 0.406306 0.0517959
741 42 2 -0.0543881 0.0515573 0.367149 0.0522584
750 42 1 0.0622985 0.097073 0.437778 0.0517971
751 42 1 0.0629322 0.0840867 0.367421 0.0526311
748 42 2 -0.0543881 0.972186 0.367813 0.0513302
181 11 2 -0.0616365 0.380539 0.545074 0.0665436
182 11 2 -0.0616365 0.41782 0.497188 0.066605
191 11 1 0.0622985 0.349981 0.547779 0.0661558
192 11 1 0.0622985 0.41746 0.461105 0.0662669
183 11 2 -0.0543881 0.455572 0.493781 0.0670835
184 11 2 -0.018412 0.456371 0.538261 0.067505
185 11 2 -0.0543881 0.494071 0.535343 0.0679873
186 11 2 -0.0616365 0.494461 0.579926 0.0684043
187 11 2 -0.0616365 0.45718 0.627812 0.0683429
188 11 2 -0.0543881 0.419427 0.631219 0.0678644
189 11 2 -0.018412 0.418628 0.58674 0.0674429
190 11 2 -0.0543881 0.380929 0.589658 0.0669606
193 11 1 0.0629322 0.485543 0.454658 0.0671271
194 11 1 0.0629322 0.524572 0.496792 0.0680433
195 11 1 0.0622985 0.525019 0.577221 0.0687921
196 11 1 0.0622985 0.45754 0.663895 0.068681
198 11 1 0.0629322 0.350428 0.628208 0.0669045
197 11 1 0.0629322 0.389457 0.670342 0.0678208
307 18 2 -0.0616365 0.886752 0.1182 0.0982123
308 18 2 -0.0616365 0.871009 0.138566 0.0976593
309 18 2 -0.0543881 0.845637 0.193744 0.0975976
310 18 2 -0.018412 0.835781 0.229059 0.0980887
311 18 2 -0.0543881 0.810343 0.284532 0.0980325
312 18 2 -0.0616365 0.800749 0.3193 0.098525
315 18 2 -0.018412 0.851719 0.208441 0.0986486
316 18 2 -0.0543881 0.877157 0.152969 0.0987048
317 18 1 0.0622985 0.9073 0.0734966 0.0982617
318 18 1 0.0622985 0.878805 0.110359 0.0972608
319 18 1 0.0629322 0.833112 0.209637 0.0971462
320 18 1 0.0629322 0.797333 0.301674 0.097587
321 18 1 0.0622985 0.780201 0.364004 0.0984756
313 18 2 -0.0616365 0.816492 0.298934 0.099078
314 18 2 -0.0543881 0.841863 0.243756 0.0991397
322 18 1 0.0622985 0.808695 0.327142 0.0994765
323 18 1 0.0629322 0.854388 0.227864 0.0995912
324 18 1 0.0629322 0.890168 0.135827 0.0991503
577 33 2 -0.0616365 0.463862 0.720948 0.11324
578 33 2 -0.0616365 0.445265 0.722278 0.113821
579 33 2 -0.0543881 0.481888 0.744847 0.114254
580 33 2 -0.018412 0.537462 0.766298 0.11411
581 33 2 -0.0543881 0.574629 0.789064 0.114541
582 33 2 -0.0616365 0.629888 0.810301 0.114392
583 33 2 -0.0616365 0.648485 0.808971 0.113811
584 33 2 -0.0543881 0.611862 0.786402 0.113378
585 33 2 -0.018412 0.556289 0.764952 0.113522
586 33 2 -0.0543881 0.519122 0.742185 0.113091
587 33 1 0.0622985 0.434154 0.702655 0.11289
588 33 1 0.0622985 0.400494 0.705061 0.113941
593 33 1 0.0629322 0.627583 0.785628 0.112909
594 33 1 0.0629322 0.533565 0.740803 0.112618
592 33 1 0.0622985 0.693257 0.826188 0.113691
589 33 1 0.0629322 0.466167 0.745621 0.114723
590 33 1 0.0629322 0.560185 0.790447 0.115014
591 33 1 0.0622985 0.659597 0.828595 0.114742
73 5 2 -0.0616365 0.868898 0.901639 0.128193
74 5 2 -0.0616365 0.831705 0.853897 0.128269
75 5 2 -0.0543881 0.825359 0.828597 0.128821
76 5 2 -0.018412 0.856173 0.850834 0.129302
77 5 2 -0.0543881 0.850172 0.825816 0.129858
78 5 2 -0.0616365 0.881101 0.848361 0.130334
79 5 2 -0.0616365 0.918295 0.896103 0.130258
80 5 2 -0.0543881 0.92464 0.921404 0.129706
81 5 2 -0.018412 0.893827 0.899167 0.129225
82 5 2 -0.0543881 0.899827 0.924184 0.128669
83 5 1 0.0622985 0.873998 0.922091 0.127746
84 5 1 0.0622985 0.806678 0.835679 0.127884
85 5 1 0.0629322 0.795024 0.789897 0.128876
86 5 1 0.0629322 0.820178 0.787077 0.129927
89 5 1 0.0629322 0.954976 0.960104 0.129651
90 5 1 0.0629322 0.929821 0.962923 0.1286
87 5 1 0.0622985 0.876001 0.827909 0.130781
88 5 1 0.0622985 0.943322 0.914322 0.130643
488 28 2 -0.0616365 0.270117 0.248255 0.15911
498 28 1 0.0622985 0.253999 0.237766 0.158654
497 28 1 0.0622985 0.35751 0.212633 0.158945
487 28 2 -0.0616365 0.327305 0.234369 0.15927
489 28 2 -0.0543881 0.23277 0.275089 0.159511
490 28 2 -0.018412 0.252302 0.288279 0.160077
491 28 2 -0.0543881 0.215229 0.315213 0.160484
492 28 2 -0.0616365 0.235195 0.328131 0.161046
493 28 2 -0.0616365 0.292384 0.314245 0.161206
494 28 2 -0.0543881 0.32973 0.287411 0.160805
495 28 2 -0.018412 0.310199 0.274221 0.160239
499 28 1 0.0629322 0.18651 0.286074 0.159374
500 28 1 0.0629322 0.168727 0.326751 0.16036
502 28 1 0.0622985 0.308501 0.324734 0.161662
496 28 2 -0.0543881 0.347272 0.247287 0.159832
503 28 1 0.0629322 0.37599 0.276426 0.160942
504 28 1 0.0629322 0.393774 0.235749 0.159956
501 28 1 0.0622985 0.20499 0.349867 0.161372
829 47 2 -0.0616365 0.0369902 0.765845 0.175055
838 47 2 -0.0543881 0.0454744 0.705618 0.175107
846 47 1 0.0629322 0.0153174 0.674809 0.174864
839 47 1 0.0622985 0.000323328 0.783283 0.174773
834 47 2 -0.0616365 0.18176 0.640405 0.176156
835 47 2 -0.0616365 0.145036 0.601717 0.17586
836 47 2 -0.0543881 0.0997489 0.623172 0.175511
843 47 1 0.0622985 0.218427 0.622968 0.176438
844 47 1 0.0622985 0.151957 0.552942 0.175903
845 47 1 0.0629322 0.0703391 0.591228 0.175274
830 47 2 -0.0616365 0.0737136 0.804533 0.175351
831 47 2 -0.0543881 0.119001 0.783078 0.175699
832 47 2 -0.018412 0.127964 0.722709 0.175755
833 47 2 -0.0543881 0.173276 0.700632 0.176104
837 47 2 -0.018412 0.0907859 0.683542 0.175456
840 47 1 0.0622985 0.0667924 0.853308 0.175308
841 47 1 0.0629322 0.148411 0.815023 0.175937
842 47 1 0.0629322 0.203433 0.731442 0.176347
250 14 1 0.0622985 0.465211 0.329065 0.190418
235 14 2 -0.0616365 0.618852 0.530011 0.190836
241 14 2 -0.0616365 0.494818 0.358307 0.190685
242 14 2 -0.0543881 0.520005 0.407706 0.19043
243 14 2 -0.018412 0.556765 0.444241 0.190757
244 14 2 -0.0543881 0.58231 0.493957 0.190506
245 14 1 0.0622985 0.639282 0.570038 0.19063
251 14 1 0.0629322 0.510387 0.417912 0.189955
252 14 1 0.0629322 0.57355 0.505351 0.190032
249 14 1 0.0622985 0.485718 0.304962 0.191476
236 14 2 -0.0616365 0.630182 0.516694 0.19142
237 14 2 -0.0543881 0.604995 0.467295 0.191676
238 14 2 -0.018412 0.568235 0.430759 0.191349
239 14 2 -0.0543881 0.542689 0.381043 0.1916
240 14 2 -0.0616365 0.506148 0.34499 0.19127
246 14 1 0.0622985 0.659789 0.545935 0.191687
247 14 1 0.0629322 0.614613 0.457088 0.19215
248 14 1 0.0629322 0.551449 0.369649 0.192073
397 23 2 -0.0616365 0.166911 0.835555 0.220975
398 23 2 -0.0616365 0.123674 0.84819 0.221387
399 23 2 -0.0543881 0.138567 0.855456 0.221974
400 23 2 -0.018412 0.196864 0.850146 0.222156
401 23 2 -0.0543881 0.212366 0.857342 0.222744
403 23 2 -0.0616365 0.313825 0.83931 0.222508
404 23 2 -0.0543881 0.298932 0.832044 0.221921
405 23 2 -0.018412 0.240635 0.837354 0.221739
406 23 2 -0.0543881 0.225133 0.830158 0.221151
407 23 1 0.0622985 0.154787 0.829681 0.2205
408 23 1 0.0622985 0.0765297 0.85255 0.221244
409 23 1 0.0629322 0.102994 0.86569 0.222303
414 23 1 0.0629322 0.259691 0.819898 0.220812
402 23 2 -0.0616365 0.270589 0.851945 0.22292
412 23 1 0.0622985 0.36097 0.83495 0.222651
413 23 1 0.0629322 0.334506 0.82181 0.221593
410 23 1 0.0629322 0.177809 0.867602 0.223083
411 23 1 0.0622985 0.282712 0.857819 0.223395
645 36 1 0.0622985 0.29357 0.0924944 0.23659
646 36 1 0.0622985 0.330605 0.188253 0.236184
636 36 2 -0.0616365 0.333416 0.113993 0.236789
631 36 2 -0.0616365 0.510334 0.167257 0.238001
632 36 2 -0.0616365 0.489873 0.114352 0.238225
633 36 2 -0.0543881 0.440688 0.0877522 0.23798
634 36 2 -0.018412 0.411518 0.113845 0.237508
635 36 2 -0.0543881 0.362095 0.0875722 0.237259
637 36 2 -0.0616365 0.353877 0.166899 0.236565
638 36 2 -0.0543881 0.403062 0.193498 0.23681
639 36 2 -0.018412 0.432232 0.167406 0.237281
640 36 2 -0.0543881 0.481655 0.193679 0.237531
641 36 1 0.0622985 0.55018 0.188756 0.238199
642 36 1 0.0622985 0.513145 0.0929974 0.238605
643 36 1 0.0629322 0.424635 0.0448459 0.238167
644 36 1 0.0629322 0.34496 0.0446634 0.237436
647 36 1 0.0629322 0.419116 0.236405 0.236623
648 36 1 0.0629322 0.49879 0.236587 0.237354
47 3 1 0.0622985 0.314091 0.762847 0.251394
48 3 1 0.0622985 0.208731 0.795801 0.251378
37 3 2 -0.0616365 0.287236 0.761791 0.251809
38 3 2 -0.0616365 0.229026 0.779998 0.2518
39 3 2 -0.0543881 0.195811 0.778722 0.252312
40 3 2 -0.018412 0.220534 0.759216 0.252838
41 3 2 -0.0543881 0.187642 0.75773 0.253355
42 3 2 -0.0616365 0.212764 0.738208 0.253876
43 3 2 -0.0616365 0.270974 0.720001 0.253885
44 3 2 -0.0543881 0.304189 0.721277 0.253373
45 3 2 -0.018412 0.279465 0.740784 0.252847
46 3 2 -0.0543881 0.312358 0.742269 0.25233
49 3 1 0.0629322 0.148658 0.793633 0.252298
50 3 1 0.0629322 0.140376 0.772352 0.253355
51 3 1 0.0622985 0.185909 0.737152 0.254291
52 3 1 0.0622985 0.291269 0.704198 0.254307
53 3 1 0.0629322 0.351342 0.706367 0.253387
54 3 1 0.0629322 0.359623 0.727648 0.25233
860 48 1 0.0629322 0.047286 0.322224 0.267485
861 48 1 0.0622985 0.15538 0.335931 0.267343
847 48 2 -0.0616365 0.017331 0.16699 0.268919
850 48 2 -0.018412 0.0580407 0.251773 0.268132
851 48 2 -0.0543881 0.0789085 0.294 0.26774
852 48 2 -0.0616365 0.13892 0.30176 0.26766
853 48 2 -0.0616365 0.178599 0.267388 0.26797
854 48 2 -0.0543881 0.158352 0.225182 0.268362
855 48 2 -0.018412 0.0982105 0.216976 0.268447
856 48 2 -0.0543881 0.0773427 0.174749 0.268839
862 48 1 0.0622985 0.227198 0.273719 0.267905
863 48 1 0.0629322 0.19109 0.197653 0.268611
864 48 1 0.0629322 0.108965 0.146526 0.269094
857 48 1 0.0622985 0.000871371 0.132818 0.269237
848 48 2 -0.0616365 0.977652 0.201361 0.268609
849 48 2 -0.0543881 0.997899 0.243567 0.268217
858 48 1 0.0622985 0.929053 0.195031 0.268674
859 48 1 0.0629322 0.965162 0.271096 0.267968
465 26 1 0.0622985 0.926881 0.317089 0.282438
466 26 1 0.0622985 0.0236303 0.357572 0.282783
455 26 2 -0.0543881 0.877438 0.35919 0.283143
456 26 2 -0.0616365 0.928693 0.345958 0.282839
457 26 2 -0.0616365 0.982146 0.368325 0.283029
464 26 1 0.0629322 0.834427 0.340711 0.282983
467 26 1 0.0629322 0.0281519 0.421773 0.283674
451 26 2 -0.0616365 0.883807 0.466542 0.284635
452 26 2 -0.0616365 0.830354 0.444175 0.284444
453 26 2 -0.0543881 0.82804 0.408527 0.283949
454 26 2 -0.018412 0.879193 0.394928 0.283641
458 26 2 -0.0543881 0.98446 0.403973 0.283525
459 26 2 -0.018412 0.933308 0.417572 0.283833
460 26 2 -0.0543881 0.935062 0.45331 0.284331
461 26 1 0.0622985 0.88562 0.495411 0.285036
462 26 1 0.0622985 0.78887 0.454928 0.284691
463 26 1 0.0629322 0.784348 0.390727 0.2838
468 26 1 0.0629322 0.978074 0.471789 0.284491
725 41 2 -0.0543881 0.663264 0.55452 0.298875
734 41 1 0.0629322 0.618282 0.540538 0.299026
735 41 1 0.0622985 0.640122 0.544585 0.29795
724 41 2 -0.018412 0.706437 0.569453 0.299283
726 41 2 -0.0616365 0.67521 0.556707 0.298276
727 41 2 -0.0616365 0.730404 0.573837 0.298081
728 41 2 -0.0543881 0.773772 0.588817 0.298484
729 41 2 -0.018412 0.762314 0.586795 0.299086
736 41 1 0.0622985 0.740022 0.57559 0.297596
737 41 1 0.0629322 0.818317 0.602621 0.298319
738 41 1 0.0629322 0.850468 0.61571 0.299343
733 41 1 0.0629322 0.650434 0.553628 0.30005
721 41 2 -0.0616365 0.79354 0.599541 0.300092
722 41 2 -0.0616365 0.738346 0.582411 0.300287
723 41 2 -0.0543881 0.694979 0.567432 0.299885
730 41 2 -0.0543881 0.805486 0.601729 0.299494
731 41 1 0.0622985 0.828629 0.611664 0.300419
732 41 1 0.0622985 0.728728 0.580659 0.300772
127 8 2 -0.0616365 0.253137 0.227615 0.314369
128 8 2 -0.0616365 0.218365 0.208329 0.314832
129 8 2 -0.0543881 0.176928 0.245709 0.315079
130 8 2 -0.018412 0.169899 0.302738 0.314866
135 8 2 -0.018412 0.205101 0.322263 0.314398
136 8 2 -0.0543881 0.246547 0.284323 0.314153
137 8 1 0.0622985 0.286684 0.197292 0.314169
138 8 1 0.0622985 0.223748 0.162384 0.315006
144 8 1 0.0629322 0.275081 0.299311 0.313777
131 8 2 -0.0543881 0.128453 0.340677 0.315111
132 8 2 -0.0616365 0.121864 0.397385 0.314894
133 8 2 -0.0616365 0.156635 0.416671 0.314432
134 8 2 -0.0543881 0.198072 0.379291 0.314184
141 8 1 0.0622985 0.0883158 0.427708 0.315094
142 8 1 0.0622985 0.151252 0.462616 0.314257
143 8 1 0.0629322 0.225939 0.395586 0.313809
139 8 1 0.0629322 0.149061 0.229414 0.315454
140 8 1 0.0629322 0.0999188 0.325689 0.315486
289 17 2 -0.0616365 0.608469 0.0554711 0.346195
290 17 2 -0.0616365 0.663745 0.0310646 0.346111
298 17 2 -0.0543881 0.559691 0.0306151 0.345925
299 17 1 0.0622985 0.60317 0.0954179 0.346481
306 17 1 0.0629322 0.515153 0.0509246 0.345997
300 17 1 0.0622985 0.703219 0.0512422 0.34633
292 17 2 -0.018412 0.62173 0.956395 0.345484
293 17 2 -0.0543881 0.627809 0.906884 0.345128
294 17 2 -0.0616365 0.57903 0.882028 0.344858
295 17 2 -0.0616365 0.523754 0.906434 0.344941
296 17 2 -0.0543881 0.517136 0.95575 0.345295
297 17 2 -0.018412 0.565769 0.981104 0.345569
303 17 1 0.0622985 0.584329 0.842081 0.344572
304 17 1 0.0622985 0.48428 0.886257 0.344722
305 17 1 0.0629322 0.472013 0.975029 0.345358
291 17 2 -0.0543881 0.670363 0.981749 0.345758
301 17 1 0.0629322 0.715486 0.96247 0.345694
302 17 1 0.0629322 0.672346 0.886574 0.345056
599 34 2 -0.0543881 0.741105 0.0165154 0.361562
600 34 2 -0.0616365 0.719317 0.0732893 0.361509
601 34 2 -0.0616365 0.741733 0.110728 0.361083
602 34 2 -0.0543881 0.785986 0.0914731 0.360709
603 34 2 -0.018412 0.808221 0.0345754 0.360758
604 34 2 -0.0543881 0.852644 0.0147338 0.360385
609 34 1 0.0622985 0.683472 0.0889417 0.361811
610 34 1 0.0622985 0.724045 0.156705 0.36104
611 34 1 0.0629322 0.803707 0.122364 0.360365
612 34 1 0.0629322 0.871283 0.0445687 0.360037
595 34 2 -0.0616365 0.874432 0.95796 0.360439
596 34 2 -0.0616365 0.852016 0.920522 0.360865
597 34 2 -0.0543881 0.807763 0.939776 0.361239
598 34 2 -0.018412 0.785528 0.996674 0.36119
605 34 1 0.0622985 0.910277 0.942307 0.360136
606 34 1 0.0622985 0.869704 0.874545 0.360908
607 34 1 0.0629322 0.790042 0.908885 0.361582
608 34 1 0.0629322 0.722467 0.98668 0.36191
100 6 2 -0.0543881 0.631669 0.0995811 0.375654
107 6 1 0.0629322 0.533275 0.164972 0.375705
108 6 1 0.0629322 0.6078 0.103237 0.375222
91 6 2 -0.0616365 0.683145 0.0668971 0.375683
101 6 1 0.0622985 0.700492 0.0444786 0.375278
94 6 2 -0.018412 0.640213 0.122457 0.376689
95 6 2 -0.0543881 0.618331 0.150419 0.377188
96 6 2 -0.0616365 0.566855 0.183103 0.377159
97 6 2 -0.0616365 0.5368 0.188127 0.376631
98 6 2 -0.0543881 0.558156 0.160478 0.37613
99 6 2 -0.018412 0.609786 0.127543 0.376154
104 6 1 0.0629322 0.6422 0.146763 0.37762
105 6 1 0.0622985 0.549508 0.205521 0.377564
106 6 1 0.0622985 0.495108 0.214615 0.376608
92 6 2 -0.0616365 0.7132 0.061873 0.376212
93 6 2 -0.0543881 0.691844 0.0895219 0.376712
102 6 1 0.0622985 0.754891 0.0353849 0.376234
103 6 1 0.0629322 0.716725 0.085028 0.377137
541 31 2 -0.0616365 0.0420288 0.638095 0.407575
544 31 2 -0.018412 0.0513006 0.516069 0.407495
545 31 2 -0.0543881 0.0555406 0.455088 0.407451
546 31 2 -0.0616365 0.0204714 0.424404 0.407057
549 31 2 -0.018412 0.0111996 0.546431 0.407137
550 31 2 -0.0543881 0.0069597 0.607412 0.407181
555 31 1 0.0622985 0.0241754 0.375204 0.407024
547 31 2 -0.0616365 0.980861 0.454395 0.406703
548 31 2 -0.0543881 0.976233 0.515134 0.406743
556 31 1 0.0622985 0.952481 0.429487 0.406384
557 31 1 0.0629322 0.943897 0.538822 0.406453
558 31 1 0.0629322 0.975046 0.63237 0.406897
551 31 1 0.0622985 0.0383249 0.687295 0.407608
542 31 2 -0.0616365 0.0816394 0.608104 0.407929
543 31 2 -0.0543881 0.0862669 0.547365 0.407889
552 31 1 0.0622985 0.11002 0.633012 0.408248
553 31 1 0.0629322 0.118603 0.523677 0.408179
554 31 1 0.0629322 0.087454 0.430129 0.407735
785 44 1 0.0622985 0.367873 0.314279 0.423531
786 44 1 0.0622985 0.437025 0.31479 0.422671
781 44 2 -0.0616365 0.309581 0.551736 0.42276
782 44 2 -0.0543881 0.305711 0.502449 0.423118
790 44 1 0.0622985 0.281726 0.59146 0.422856
791 44 1 0.0629322 0.274514 0.502903 0.423502
775 44 2 -0.0616365 0.370964 0.354232 0.423242
776 44 2 -0.0616365 0.40917 0.354514 0.422766
777 44 2 -0.0543881 0.41304 0.403802 0.422408
778 44 2 -0.018412 0.378715 0.453268 0.422523
779 44 2 -0.0543881 0.382205 0.503014 0.422166
780 44 2 -0.0616365 0.347787 0.552018 0.422285
783 44 2 -0.018412 0.340036 0.452982 0.423004
784 44 2 -0.0543881 0.336546 0.403237 0.42336
787 44 1 0.0629322 0.444238 0.403348 0.422024
788 44 1 0.0629322 0.412979 0.503925 0.421779
789 44 1 0.0622985 0.350878 0.591971 0.421995
792 44 1 0.0629322 0.305773 0.402325 0.423747
217 13 2 -0.0616365 0.862913 0.617904 0.438905
218 13 2 -0.0616365 0.889521 0.609767 0.438362
219 13 2 -0.0543881 0.871143 0.64235 0.43788
226 13 2 -0.0543881 0.817871 0.658643 0.438966
227 13 1 0.0622985 0.877842 0.591482 0.439295
228 13 1 0.0622985 0.926001 0.576753 0.438313
229 13 1 0.0629322 0.893163 0.635241 0.437442
234 13 1 0.0629322 0.796732 0.664733 0.439409
220 13 2 -0.018412 0.825969 0.683381 0.437936
221 13 2 -0.0543881 0.80713 0.716357 0.437455
222 13 2 -0.0616365 0.762088 0.757096 0.437516
223 13 2 -0.0616365 0.73548 0.765234 0.438059
224 13 2 -0.0543881 0.753858 0.732651 0.438542
225 13 2 -0.018412 0.799032 0.691619 0.438485
230 13 1 0.0629322 0.828269 0.710267 0.437012
231 13 1 0.0622985 0.747159 0.783518 0.437126
232 13 1 0.0622985 0.699 0.798247 0.438109
233 13 1 0.0629322 0.731838 0.73976 0.438979
353 20 1 0.0622985 0.314698 0.0701964 0.469416
358 20 1 0.0622985 0.560513 0.184028 0.468174
343 20 2 -0.0616365 0.363966 0.0716272 0.469376
344 20 2 -0.0616365 0.398379 0.0347626 0.469719
345 20 2 -0.0543881 0.459208 0.0364736 0.469671
346 20 2 -0.018412 0.486169 0.0750897 0.469279
347 20 2 -0.0543881 0.547193 0.0772176 0.469226
348 20 2 -0.0616365 0.573534 0.115873 0.468834
349 20 2 -0.0616365 0.53912 0.152738 0.468491
350 20 2 -0.0543881 0.478292 0.151027 0.468539
351 20 2 -0.018412 0.45133 0.112411 0.468932
352 20 2 -0.0543881 0.390307 0.110283 0.468984
354 20 1 0.0622985 0.376986 0.00347183 0.470037
355 20 1 0.0629322 0.486512 0.00629522 0.469952
356 20 1 0.0629322 0.575708 0.0476001 0.469502
357 20 1 0.0622985 0.622801 0.117304 0.468795
359 20 1 0.0629322 0.450987 0.181205 0.468258
360 20 1 0.0629322 0.361791 0.1399 0.468709
699 39 1 0.0622985 0.216055 0.0290367 0.483909
689 39 2 -0.0543881 0.217996 0.934215 0.484048
697 39 1 0.0629322 0.251645 0.821586 0.483919
698 39 1 0.0629322 0.254313 0.927807 0.483718
700 39 1 0.0622985 0.135046 0.0449464 0.484642
691 39 2 -0.0616365 0.152116 0.999313 0.484558
685 39 2 -0.0616365 0.146877 0.790727 0.484953
686 39 2 -0.0616365 0.191634 0.781937 0.484548
687 39 2 -0.0543881 0.215364 0.829437 0.484246
688 39 2 -0.018412 0.19453 0.886176 0.484348
690 39 2 -0.0616365 0.196872 0.990523 0.484153
692 39 2 -0.0543881 0.128385 0.951814 0.484859
693 39 2 -0.018412 0.149219 0.895074 0.484758
694 39 2 -0.0543881 0.125754 0.847036 0.485057
695 39 1 0.0622985 0.127694 0.752214 0.485196
696 39 1 0.0622985 0.208704 0.736304 0.484463
701 39 1 0.0629322 0.0921044 0.959664 0.485186
702 39 1 0.0629322 0.0894367 0.853443 0.485387
1 1 2 -0.0616365 0.605103 0.466306 0.499953
2 1 2 -0.0616365 0.607053 0.527205 0.499982
8 1 2 -0.0543881 0.444762 0.440665 0.499988
9 1 2 -0.018412 0.499013 0.469174 0.499985
10 1 2 -0.0543881 0.551334 0.437406 0.499955
11 1 1 0.0622985 0.647107 0.440334 0.499929
12 1 1 0.0622985 0.650637 0.55056 0.49998
17 1 1 0.0629322 0.442447 0.391297 0.499965
18 1 1 0.0629322 0.550486 0.387993 0.499932
3 1 2 -0.0543881 0.555238 0.559336 0.500012
4 1 2 -0.018412 0.500987 0.530827 0.500015
5 1 2 -0.0543881 0.448667 0.562595 0.500045
6 1 2 -0.0616365 0.394897 0.533694 0.500047
7 1 2 -0.0616365 0.392947 0.472795 0.500018
13 1 1 0.0629322 0.557553 0.608704 0.500035
14 1 1 0.0629322 0.449515 0.612008 0.500068
15 1 1 0.0622985 0.352893 0.559667 0.500071
16 1 1 0.0622985 0.349364 0.44944 0.50002
885 50 2 -0.0543881 0.898371 0.448942 0.515643
886 50 2 -0.018412 0.854032 0.474869 0.515309
887 50 2 -0.0543881 0.860351 0.48221 0.514704
888 50 2 -0.0616365 0.815871 0.508099 0.514375
889 50 2 -0.0616365 0.764691 0.526878 0.514649
890 50 2 -0.0543881 0.757879 0.519807 0.515252
891 50 2 -0.018412 0.802218 0.49388 0.515586
895 50 1 0.0629322 0.940141 0.433484 0.515428
896 50 1 0.0629322 0.901598 0.467209 0.514475
897 50 1 0.0622985 0.821332 0.513853 0.513887
898 50 1 0.0622985 0.728696 0.547841 0.514383
899 50 1 0.0629322 0.716109 0.535266 0.515467
883 50 2 -0.0616365 0.840379 0.46065 0.516519
884 50 2 -0.0616365 0.891559 0.441872 0.516246
892 50 2 -0.0543881 0.795899 0.48654 0.516191
893 50 1 0.0622985 0.834918 0.454897 0.517007
894 50 1 0.0622985 0.927554 0.420908 0.516512
900 50 1 0.0629322 0.754653 0.50154 0.516419
415 24 2 -0.0616365 0.0951226 0.0658491 0.531066
416 24 2 -0.0616365 0.0726674 0.0920595 0.530563
417 24 2 -0.0543881 0.0974245 0.143661 0.530351
418 24 2 -0.018412 0.144883 0.169518 0.53064
419 24 2 -0.0543881 0.170116 0.221317 0.530431
420 24 2 -0.0616365 0.217377 0.246651 0.530723
421 24 2 -0.0616365 0.239832 0.220441 0.531226
422 24 2 -0.0543881 0.215075 0.168839 0.531438
423 24 2 -0.018412 0.167617 0.142983 0.531149
424 24 2 -0.0543881 0.142384 0.0911834 0.531358
425 24 1 0.0622985 0.0750275 0.0240512 0.531238
426 24 1 0.0622985 0.0343838 0.071492 0.530328
427 24 1 0.0629322 0.0787126 0.164384 0.529943
428 24 1 0.0629322 0.152405 0.243109 0.530024
429 24 1 0.0622985 0.237472 0.288449 0.530552
430 24 1 0.0622985 0.278116 0.241008 0.531462
432 24 1 0.0629322 0.160095 0.0693917 0.531765
431 24 1 0.0629322 0.233787 0.148116 0.531847
757 43 2 -0.0616365 0.505327 0.9241 0.546847
758 43 2 -0.0616365 0.488424 0.885285 0.547287
759 43 2 -0.0543881 0.473733 0.82773 0.547146
760 43 2 -0.018412 0.475819 0.808478 0.546564
761 43 2 -0.0543881 0.461175 0.750806 0.546418
762 43 2 -0.0616365 0.463424 0.732151 0.545837
763 43 2 -0.0616365 0.480327 0.770966 0.545398
764 43 2 -0.0543881 0.495017 0.828521 0.545538
765 43 2 -0.018412 0.492931 0.847773 0.54612
766 43 2 -0.0543881 0.507576 0.905444 0.546267
767 43 1 0.0622985 0.517215 0.970709 0.546962
769 43 1 0.0629322 0.46011 0.79678 0.547507
770 43 1 0.0629322 0.447379 0.718797 0.546769
771 43 1 0.0622985 0.451535 0.685542 0.545722
772 43 1 0.0622985 0.48213 0.755797 0.544927
773 43 1 0.0629322 0.50864 0.859471 0.545177
774 43 1 0.0629322 0.521371 0.937454 0.545915
768 43 1 0.0622985 0.486621 0.900454 0.547757
163 10 2 -0.0616365 0.0328163 0.00875966 0.561638
164 10 2 -0.0616365 0.021029 0.00558998 0.562235
180 10 1 0.0629322 0.00439762 0.04007 0.560781
165 10 2 -0.0543881 0.970619 0.0315357 0.562462
166 10 2 -0.018412 0.931533 0.0608958 0.562092
167 10 2 -0.0543881 0.88078 0.0871186 0.562314
168 10 2 -0.0616365 0.842183 0.116241 0.561941
169 10 2 -0.0616365 0.853971 0.119411 0.561344
170 10 2 -0.0543881 0.90438 0.0934649 0.561117
171 10 2 -0.018412 0.943466 0.0641047 0.561487
172 10 2 -0.0543881 0.994219 0.0378819 0.561265
175 10 1 0.0629322 0.961678 0.0285824 0.562947
176 10 1 0.0629322 0.870602 0.0849305 0.562798
177 10 1 0.0622985 0.801334 0.137277 0.562124
178 10 1 0.0622985 0.822669 0.143014 0.561042
179 10 1 0.0629322 0.913322 0.0964181 0.560632
173 10 1 0.0622985 0.0736651 0.987724 0.561455
174 10 1 0.0622985 0.0523301 0.981987 0.562537
341 19 1 0.0629322 0.262343 0.633156 0.592339
334 19 2 -0.0543881 0.319949 0.727243 0.591914
342 19 1 0.0629322 0.28986 0.705649 0.591586
325 19 2 -0.0616365 0.352102 0.776311 0.591745
326 19 2 -0.0616365 0.389433 0.803543 0.592143
335 19 1 0.0622985 0.347882 0.793997 0.591285
336 19 1 0.0622985 0.415452 0.843286 0.592006
331 19 2 -0.0616365 0.298066 0.633956 0.593225
332 19 2 -0.0543881 0.292806 0.655734 0.592657
340 19 1 0.0622985 0.272047 0.594213 0.593362
330 19 2 -0.0616365 0.335397 0.661188 0.593623
339 19 1 0.0622985 0.339617 0.643503 0.594083
333 19 2 -0.018412 0.324853 0.704965 0.592483
327 19 2 -0.0543881 0.394693 0.781766 0.592711
328 19 2 -0.018412 0.362646 0.732534 0.592886
329 19 2 -0.0543881 0.367549 0.710257 0.593455
337 19 1 0.0629322 0.425156 0.804343 0.593029
338 19 1 0.0629322 0.397639 0.73185 0.593783
566 32 2 -0.0543881 0.028543 0.329452 0.607666
567 32 2 -0.018412 0.0251075 0.274242 0.60793
559 32 2 -0.0616365 0.976169 0.180999 0.608066
568 32 2 -0.0543881 0.979109 0.235881 0.6078
569 32 1 0.0622985 0.938903 0.15032 0.607959
576 32 1 0.0629322 0.943894 0.249044 0.607479
564 32 2 -0.0616365 0.11758 0.350251 0.608197
565 32 2 -0.0616365 0.0745784 0.367274 0.607799
574 32 1 0.0622985 0.077013 0.411742 0.607584
575 32 1 0.0629322 0.994008 0.343903 0.607343
560 32 2 -0.0616365 0.0191705 0.163976 0.608464
561 32 2 -0.0543881 0.0652059 0.201798 0.608597
562 32 2 -0.018412 0.0686414 0.257008 0.608333
563 32 2 -0.0543881 0.11464 0.295369 0.608463
570 32 1 0.0622985 0.0167359 0.119508 0.608679
571 32 1 0.0629322 0.0997408 0.187348 0.60892
572 32 1 0.0629322 0.149855 0.282207 0.608784
573 32 1 0.0622985 0.154846 0.38093 0.608304
65 4 1 0.0622985 0.256005 0.332036 0.622617
62 4 2 -0.0543881 0.434433 0.319869 0.623566
64 4 2 -0.0543881 0.341015 0.323588 0.623052
70 4 1 0.0622985 0.517001 0.321647 0.624052
71 4 1 0.0629322 0.445384 0.276686 0.62335
72 4 1 0.0629322 0.35068 0.280456 0.62283
55 4 2 -0.0616365 0.288369 0.352094 0.622933
56 4 2 -0.0616365 0.275659 0.405308 0.623203
57 4 2 -0.0543881 0.315567 0.430131 0.623592
66 4 1 0.0622985 0.232999 0.428353 0.623106
67 4 1 0.0629322 0.304616 0.473314 0.623807
58 4 2 -0.018412 0.368566 0.401936 0.623715
59 4 2 -0.0543881 0.408986 0.426413 0.624106
61 4 2 -0.0616365 0.474341 0.344692 0.623955
63 4 2 -0.018412 0.381434 0.348064 0.623442
60 4 2 -0.0616365 0.461631 0.397906 0.624225
68 4 1 0.0629322 0.39932 0.469544 0.624328
69 4 1 0.0622985 0.493996 0.417964 0.62454
515 29 1 0.0622985 0.632975 0.726935 0.654296
516 29 1 0.0622985 0.661827 0.788771 0.653428
505 29 2 -0.0616365 0.677906 0.747497 0.654278
506 29 2 -0.0616365 0.693847 0.781661 0.653798
507 29 2 -0.0543881 0.7493 0.807076 0.653775
508 29 2 -0.018412 0.789319 0.798543 0.654231
509 29 2 -0.0543881 0.845117 0.823825 0.654212
510 29 2 -0.0616365 0.884595 0.815003 0.65467
511 29 2 -0.0616365 0.868654 0.780839 0.655149
512 29 2 -0.0543881 0.813201 0.755423 0.655173
513 29 2 -0.018412 0.773181 0.763956 0.654716
514 29 2 -0.0543881 0.717384 0.738675 0.654735
517 29 1 0.0629322 0.761568 0.834669 0.653383
518 29 1 0.0629322 0.858705 0.851648 0.653827
519 29 1 0.0622985 0.929526 0.835565 0.654651
520 29 1 0.0622985 0.900674 0.773728 0.655519
521 29 1 0.0629322 0.800933 0.727831 0.655564
522 29 1 0.0629322 0.703796 0.710852 0.655121
826 46 1 0.0622985 0.567961 0.303575 0.668761
812 46 2 -0.0616365 0.64479 0.138089 0.670741
813 46 2 -0.0543881 0.596584 0.136604 0.670366
814 46 2 -0.018412 0.588733 0.180276 0.669944
815 46 2 -0.0543881 0.54052 0.179269 0.669566
816 46 2 -0.0616365 0.533181 0.223022 0.669146
817 46 2 -0.0616365 0.573959 0.268162 0.669101
818 46 2 -0.0543881 0.622165 0.269646 0.669475
819 46 2 -0.018412 0.630016 0.225974 0.669898
822 46 1 0.0622985 0.650788 0.102675 0.671081
823 46 1 0.0629322 0.563898 0.0997016 0.670408
824 46 1 0.0629322 0.507062 0.142953 0.669596
825 46 1 0.0622985 0.494153 0.221873 0.668843
827 46 1 0.0629322 0.654851 0.306549 0.669433
811 46 2 -0.0616365 0.685569 0.183228 0.670696
820 46 2 -0.0543881 0.67823 0.226982 0.670276
821 46 1 0.0622985 0.724597 0.184378 0.670999
828 46 1 0.0629322 0.711687 0.263297 0.670245
254 15 2 -0.0616365 0.132866 0.890116 0.684661
264 15 1 0.0622985 0.154391 0.863622 0.684303
265 15 1 0.0629322 0.0457609 0.856839 0.684454
269 15 1 0.0629322 0.0792391 0.0181613 0.686282
268 15 1 0.0622985 0.970609 0.0113784 0.686434
253 15 2 -0.0616365 0.16662 0.926413 0.685016
255 15 2 -0.0543881 0.0725333 0.886479 0.684746
256 15 2 -0.018412 0.0454138 0.919127 0.685188
260 15 2 -0.0543881 0.0524668 0.988522 0.68599
261 15 2 -0.018412 0.0795863 0.955873 0.685548
262 15 2 -0.0543881 0.140116 0.95915 0.685458
263 15 1 0.0622985 0.215486 0.929318 0.684946
270 15 1 0.0629322 0.168095 0.988385 0.685743
257 15 2 -0.0543881 0.984884 0.91585 0.685279
258 15 2 -0.0616365 0.95838 0.948588 0.68572
259 15 2 -0.0616365 0.992134 0.984884 0.686076
266 15 1 0.0629322 0.956905 0.886616 0.684994
267 15 1 0.0622985 0.909514 0.945682 0.68579
387 22 2 -0.018412 0.729881 0.314969 0.716253
388 22 2 -0.0543881 0.77091 0.299997 0.715823
389 22 1 0.0622985 0.822873 0.329079 0.715072
396 22 1 0.0629322 0.78916 0.254064 0.7158
379 22 2 -0.0616365 0.789757 0.341533 0.715417
380 22 2 -0.0616365 0.767766 0.398391 0.715437
381 22 2 -0.0543881 0.72688 0.413838 0.715864
382 22 2 -0.018412 0.707618 0.372532 0.716273
390 22 1 0.0622985 0.78307 0.431993 0.715109
391 22 1 0.0629322 0.70946 0.460133 0.715874
394 22 1 0.0622985 0.654429 0.255507 0.717417
385 22 2 -0.0616365 0.669733 0.289109 0.717089
386 22 2 -0.0543881 0.710619 0.273663 0.716662
395 22 1 0.0629322 0.728039 0.227368 0.716652
383 22 2 -0.0543881 0.666589 0.387504 0.716703