ITEM: TIMESTEP
0
ITEM: NUMBER OF ATOMS
900
ITEM: BOX BOUNDS pp pp pp
0.0000000000000000e+00 2.1989592999999999e+01
0.0000000000000000e+00 2.1989592999999999e+01
0.0000000000000000e+00 2.1989592920000000e+03
ITEM: ATOMS id mol type q xs ys zs
436 25 2 -0.018412 0.601792 0.48435 0.0348319
446 25 1 0.0629322 0.605577 0.387754 0.0346867
437 25 2 -0.0543881 0.615616 0.43264 0.0345235
449 25 1 0.0629322 0.63114 0.585751 0.0336978
440 25 2 -0.0543881 0.626215 0.543461 0.0339376
441 25 2 -0.018412 0.606049 0.540311 0.0345351
442 25 2 -0.0543881 0.590906 0.589345 0.0348436
450 25 1 0.0629322 0.591781 0.631228 0.0345837
439 25 2 -0.0616365 0.641537 0.490034 0.0336566
448 25 1 0.0622985 0.659983 0.488515 0.033201
447 25 1 0.0622985 0.646674 0.391787 0.0337059
438 25 2 -0.0616365 0.636483 0.434955 0.03395
435 25 2 -0.0543881 0.57692 0.480897 0.0354037
445 25 1 0.0629322 0.570163 0.436623 0.0356328
444 25 1 0.0622985 0.544762 0.532087 0.0361392
433 25 2 -0.0616365 0.570762 0.588741 0.0354183
434 25 2 -0.0616365 0.562476 0.533764 0.0356771
443 25 1 0.0622985 0.556028 0.630922 0.0356581
182 11 2 -0.0616365 0.12227 0.116338 0.0584857
192 11 1 0.0622985 0.107917 0.0703732 0.0584559
191 11 1 0.0622985 0.208646 0.103343 0.0581382
181 11 2 -0.0616365 0.177039 0.134423 0.0583291
190 11 2 -0.0543881 0.193239 0.192596 0.0584065
193 11 1 0.0629322 0.041464 0.134034 0.0589324
194 11 1 0.0629322 0.0125098 0.235788 0.059235
183 11 2 -0.0543881 0.0833902 0.154249 0.0587681
184 11 2 -0.018412 0.0995802 0.210831 0.0588414
197 11 1 0.0629322 0.213693 0.308639 0.0586275
188 11 2 -0.0543881 0.16986 0.291348 0.0587442
189 11 2 -0.018412 0.153601 0.232176 0.0586563
198 11 1 0.0629322 0.237719 0.21373 0.0582651
185 11 2 -0.0543881 0.0594772 0.250752 0.0591133
186 11 2 -0.0616365 0.076524 0.310252 0.0592055
187 11 2 -0.0616365 0.128452 0.329618 0.0589887
195 11 1 0.0622985 0.0434146 0.341291 0.059418
196 11 1 0.0622985 0.144875 0.376499 0.0590829
754 42 1 0.0622985 0.459917 0.66189 0.0596603
740 42 2 -0.0616365 0.614328 0.825513 0.0581818
749 42 1 0.0622985 0.564374 0.818132 0.0573414
739 42 2 -0.0616365 0.566662 0.80755 0.0578307
748 42 2 -0.0543881 0.523974 0.768745 0.058074
750 42 1 0.0622985 0.649462 0.855221 0.0579393
741 42 2 -0.0543881 0.617263 0.807246 0.0587448
751 42 1 0.0629322 0.658787 0.818035 0.0589849
756 42 1 0.0629322 0.483612 0.75739 0.0577739
746 42 2 -0.0543881 0.486626 0.717556 0.058924
747 42 2 -0.018412 0.527759 0.755084 0.058656
755 42 1 0.0629322 0.448446 0.703551 0.0586267
745 42 2 -0.0616365 0.492998 0.698878 0.059505
742 42 2 -0.018412 0.575965 0.771574 0.0589878
752 42 1 0.0629322 0.619145 0.763228 0.0598697
743 42 2 -0.0543881 0.582189 0.751649 0.0595726
744 42 2 -0.0616365 0.543017 0.716228 0.0598133
753 42 1 0.0622985 0.54335 0.699948 0.0603075
318 18 1 0.0622985 0.635608 0.830745 0.108598
307 18 2 -0.0616365 0.636959 0.751713 0.109091
308 18 2 -0.0616365 0.641037 0.813066 0.10905
316 18 2 -0.0543881 0.641593 0.726067 0.109639
317 18 1 0.0622985 0.626138 0.721442 0.108714
309 18 2 -0.0543881 0.654466 0.84566 0.109547
310 18 2 -0.018412 0.659004 0.819949 0.110087
315 18 2 -0.018412 0.648425 0.76056 0.110158
319 18 1 0.0629322 0.662327 0.894502 0.109527
324 18 1 0.0629322 0.636939 0.676609 0.109735
314 18 2 -0.0543881 0.649763 0.733507 0.110706
323 18 1 0.0629322 0.64362 0.684608 0.11076
313 18 2 -0.0616365 0.661543 0.767331 0.111213
311 18 2 -0.0543881 0.668738 0.853125 0.110617
312 18 2 -0.0616365 0.666878 0.826015 0.111178
320 18 1 0.0629322 0.681885 0.90162 0.110594
577 33 2 -0.0616365 0.0270666 0.328788 0.112901
586 33 2 -0.0543881 0.0755017 0.324064 0.113253
593 33 1 0.0629322 0.174133 0.323126 0.114002
587 33 1 0.0622985 0.0115239 0.290976 0.112644
594 33 1 0.0629322 0.100769 0.283056 0.113217
581 33 2 -0.0543881 0.0829123 0.470367 0.113904
582 33 2 -0.0616365 0.131079 0.464643 0.114273
590 33 1 0.0629322 0.0573192 0.51359 0.113935
591 33 1 0.0622985 0.145888 0.502715 0.114541
580 33 2 -0.018412 0.0631086 0.423272 0.113564
585 33 2 -0.018412 0.0965625 0.371009 0.113584
583 33 2 -0.0616365 0.164261 0.414419 0.114277
584 33 2 -0.0543881 0.148276 0.365887 0.11396
592 33 1 0.0622985 0.20113 0.413825 0.114614
579 33 2 -0.0543881 0.0112728 0.426789 0.113252
578 33 2 -0.0616365 0.992918 0.379079 0.112908
588 33 1 0.0622985 0.952986 0.38243 0.112618
589 33 1 0.0629322 0.979765 0.465121 0.113282
322 18 1 0.0622985 0.662762 0.743983 0.111649
321 18 1 0.0622985 0.672752 0.853559 0.111577
80 5 2 -0.0543881 0.291775 0.600606 0.126422
89 5 1 0.0629322 0.317568 0.579417 0.126788
88 5 1 0.0622985 0.211996 0.623439 0.126906
79 5 2 -0.0616365 0.235681 0.624053 0.126471
81 5 2 -0.018412 0.321654 0.606526 0.125896
78 5 2 -0.0616365 0.208842 0.651745 0.126022
76 5 2 -0.018412 0.297272 0.635978 0.125424
77 5 2 -0.0543881 0.239991 0.656377 0.125487
75 5 2 -0.0543881 0.326353 0.641793 0.124895
85 5 1 0.0629322 0.308509 0.664052 0.124481
90 5 1 0.0629322 0.404997 0.557781 0.126172
73 5 2 -0.0616365 0.407901 0.588578 0.125297
82 5 2 -0.0543881 0.377487 0.582297 0.125828
83 5 1 0.0622985 0.454766 0.570451 0.125243
74 5 2 -0.0616365 0.381366 0.61813 0.124833
84 5 1 0.0622985 0.407005 0.620874 0.124406
87 5 1 0.0622985 0.162515 0.671419 0.126099
86 5 1 0.0629322 0.216908 0.683326 0.125131
503 28 1 0.0629322 0.206491 0.0384296 0.16132
490 28 2 -0.018412 0.326114 0.104771 0.160682
491 28 2 -0.0543881 0.298015 0.150567 0.160427
492 28 2 -0.0616365 0.237841 0.157395 0.160495
493 28 2 -0.0616365 0.20581 0.119012 0.160837
494 28 2 -0.0543881 0.232521 0.0699698 0.161079
495 28 2 -0.018412 0.292747 0.0626606 0.161005
500 28 1 0.0629322 0.322344 0.182633 0.160151
502 28 1 0.0622985 0.155523 0.128838 0.160845
501 28 1 0.0622985 0.214061 0.192901 0.160299
496 28 2 -0.0543881 0.317518 0.0127329 0.161243
489 28 2 -0.0543881 0.386724 0.0935996 0.16063
499 28 1 0.0629322 0.415974 0.124265 0.160384
488 28 2 -0.0616365 0.41127 0.0412187 0.160881
487 28 2 -0.0616365 0.375119 0.00272363 0.161153
498 28 1 0.0622985 0.459557 0.0310984 0.160822
504 28 1 0.0629322 0.28826 0.980288 0.161475
497 28 1 0.0622985 0.396785 0.962551 0.161353
841 47 1 0.0629322 0.455627 0.549971 0.167805
832 47 2 -0.018412 0.537332 0.549139 0.168352
831 47 2 -0.0543881 0.495576 0.525235 0.167927
838 47 2 -0.0543881 0.600589 0.465652 0.168178
830 47 2 -0.0616365 0.508169 0.47162 0.167639
840 47 1 0.0622985 0.476066 0.453703 0.167306
839 47 1 0.0622985 0.569061 0.396995 0.167544
829 47 2 -0.0616365 0.558974 0.44035 0.16778
837 47 2 -0.018412 0.59082 0.518971 0.168472
833 47 2 -0.0543881 0.527119 0.604045 0.168654
842 47 1 0.0629322 0.48522 0.631582 0.168547
846 47 1 0.0629322 0.642612 0.438258 0.168246
836 47 2 -0.0543881 0.630186 0.540852 0.168881
834 47 2 -0.0616365 0.565985 0.626568 0.169051
835 47 2 -0.0616365 0.615727 0.592745 0.16918
844 47 1 0.0622985 0.648223 0.609954 0.169506
845 47 1 0.0629322 0.67325 0.516529 0.169021
843 47 1 0.0622985 0.553243 0.669321 0.169271
246 14 1 0.0622985 0.111335 0.0286844 0.184194
247 14 1 0.0629322 0.00798763 0.0317195 0.184462
245 14 1 0.0622985 0.169112 0.932106 0.184236
236 14 2 -0.0616365 0.089284 0.984951 0.1843
237 14 2 -0.0543881 0.0303394 0.987851 0.184417
235 14 2 -0.0616365 0.119967 0.931522 0.184331
243 14 2 -0.018412 0.0286966 0.881803 0.184527
244 14 2 -0.0543881 0.0897144 0.87921 0.184433
252 14 1 0.0629322 0.114594 0.835228 0.184434
251 14 1 0.0629322 0.0242092 0.784061 0.184681
248 14 1 0.0629322 0.911474 0.976971 0.184659
239 14 2 -0.0543881 0.939114 0.934448 0.18465
238 14 2 -0.018412 0.999063 0.936634 0.184515
242 14 2 -0.0543881 0.999061 0.829467 0.184654
240 14 2 -0.0616365 0.908384 0.883907 0.18476
249 14 1 0.0622985 0.859613 0.884014 0.184908
250 14 1 0.0622985 0.91296 0.78902 0.184861
241 14 2 -0.0616365 0.939916 0.829974 0.184763
403 23 2 -0.0616365 0.803981 0.0286412 0.225277
404 23 2 -0.0543881 0.759536 0.0686506 0.225259
413 23 1 0.0629322 0.71807 0.0539503 0.225076
414 23 1 0.0629322 0.682888 0.148783 0.225271
397 23 2 -0.0616365 0.726941 0.217354 0.22573
405 23 2 -0.018412 0.768274 0.122541 0.225497
406 23 2 -0.0543881 0.72322 0.162295 0.225492
407 23 1 0.0622985 0.68778 0.245216 0.225695
398 23 2 -0.0616365 0.781196 0.234698 0.226
399 23 2 -0.0543881 0.827266 0.194352 0.226044
400 23 2 -0.018412 0.820653 0.138765 0.225766
402 23 2 -0.0616365 0.857504 0.0445737 0.225486
411 23 1 0.0622985 0.895322 0.0124211 0.225498
410 23 1 0.0629322 0.90859 0.108065 0.226014
401 23 2 -0.0543881 0.864537 0.0984317 0.225771
412 23 1 0.0622985 0.800933 0.983456 0.22507
409 23 1 0.0629322 0.870331 0.206706 0.226274
408 23 1 0.0622985 0.782446 0.279239 0.226214
640 36 2 -0.0543881 0.859969 0.00156423 0.234173
643 36 1 0.0629322 0.704182 0.0795301 0.234367
642 36 1 0.0622985 0.791219 0.139794 0.234355
631 36 2 -0.0616365 0.852786 0.0623899 0.234277
641 36 1 0.0622985 0.893927 0.0871153 0.234253
632 36 2 -0.0616365 0.797941 0.0904221 0.234332
633 36 2 -0.0543881 0.747858 0.0556153 0.234321
645 36 1 0.0622985 0.661385 0.878499 0.234109
644 36 1 0.0629322 0.658734 0.988062 0.234244
634 36 2 -0.018412 0.751929 0.99508 0.234209
638 36 2 -0.0543881 0.810069 0.90651 0.23403
639 36 2 -0.018412 0.807784 0.96674 0.234166
647 36 1 0.0629322 0.853564 0.884633 0.233984
635 36 2 -0.0543881 0.701417 0.963867 0.234202
648 36 1 0.0629322 0.906004 0.981663 0.234064
646 36 1 0.0622985 0.755337 0.828788 0.23385
636 36 2 -0.0616365 0.703282 0.903881 0.234109
637 36 2 -0.0616365 0.756023 0.87536 0.23401
47 3 1 0.0622985 0.634654 0.17834 0.250199
48 3 1 0.0622985 0.620181 0.0694706 0.250292
37 3 2 -0.0616365 0.620582 0.158673 0.250633
38 3 2 -0.0616365 0.613214 0.0975375 0.250682
46 3 2 -0.0543881 0.60811 0.195584 0.251115
54 3 1 0.0629322 0.608763 0.241576 0.251029
49 3 1 0.0629322 0.593874 0.0256788 0.251326
39 3 2 -0.0543881 0.597787 0.0740521 0.251219
53 3 1 0.0629322 0.588883 0.257672 0.252107
50 3 1 0.0629322 0.549349 0.0405083 0.252268
41 3 2 -0.0543881 0.559642 0.0869265 0.2522
40 3 2 -0.018412 0.584245 0.108937 0.251688
45 3 2 -0.018412 0.593165 0.170713 0.251655
51 3 1 0.0622985 0.523668 0.102626 0.253044
42 3 2 -0.0616365 0.544091 0.124967 0.252658
43 3 2 -0.0616365 0.555701 0.183876 0.252644
52 3 1 0.0622985 0.545457 0.21615 0.253013
44 3 2 -0.0543881 0.58279 0.208079 0.252152
854 48 2 -0.0543881 0.32617 0.237074 0.26724
863 48 1 0.0629322 0.306671 0.277514 0.267459
848 48 2 -0.0616365 0.419276 0.245509 0.2657
849 48 2 -0.0543881 0.418381 0.194067 0.266019
858 48 1 0.0622985 0.44701 0.245712 0.265305
859 48 1 0.0629322 0.445561 0.154545 0.26588
850 48 2 -0.018412 0.383908 0.189361 0.266512
847 48 2 -0.0616365 0.391299 0.295979 0.265885
856 48 2 -0.0543881 0.36252 0.293816 0.266407
855 48 2 -0.018412 0.356466 0.240261 0.266699
851 48 2 -0.0543881 0.383151 0.137935 0.266848
860 48 1 0.0629322 0.409389 0.0985637 0.266733
852 48 2 -0.0616365 0.352378 0.135597 0.267376
864 48 1 0.0629322 0.345265 0.335388 0.266587
857 48 1 0.0622985 0.393682 0.336687 0.265584
853 48 2 -0.0616365 0.322935 0.18561 0.267565
862 48 1 0.0622985 0.301886 0.184189 0.26801
861 48 1 0.0622985 0.351303 0.0959213 0.26765
453 26 2 -0.0543881 0.666113 0.0195355 0.280076
466 26 1 0.0622985 0.518535 0.188432 0.279486
455 26 2 -0.0543881 0.643181 0.108243 0.279558
456 26 2 -0.0616365 0.606116 0.152127 0.279381
457 26 2 -0.0616365 0.550945 0.152826 0.279621
465 26 1 0.0622985 0.620716 0.187471 0.279058
454 26 2 -0.018412 0.627355 0.0639476 0.27993
458 26 2 -0.0543881 0.531883 0.111373 0.280033
459 26 2 -0.018412 0.570788 0.0654279 0.280188
464 26 1 0.0629322 0.687146 0.107355 0.279361
463 26 1 0.0629322 0.710793 0.013174 0.279868
467 26 1 0.0629322 0.487848 0.114747 0.280269
460 26 2 -0.0543881 0.558852 0.0253262 0.280636
468 26 1 0.0629322 0.518241 0.0325825 0.280906
452 26 2 -0.0616365 0.650672 0.976943 0.280476
451 26 2 -0.0616365 0.597471 0.979394 0.280766
461 26 1 0.0622985 0.589005 0.945706 0.281108
462 26 1 0.0622985 0.683948 0.939083 0.280565
731 41 1 0.0622985 0.571512 0.37806 0.298895
721 41 2 -0.0616365 0.592604 0.355937 0.299314
732 41 1 0.0622985 0.678391 0.399732 0.299262
735 41 1 0.0622985 0.659118 0.197246 0.30139
726 41 2 -0.0616365 0.632946 0.223561 0.301043
736 41 1 0.0622985 0.548531 0.182848 0.301152
727 41 2 -0.0616365 0.575988 0.21543 0.300912
724 41 2 -0.018412 0.643314 0.295211 0.300257
728 41 2 -0.0543881 0.550984 0.244877 0.300437
737 41 1 0.0629322 0.50262 0.232214 0.300339
729 41 2 -0.018412 0.583827 0.28461 0.30009
738 41 1 0.0629322 0.515336 0.304201 0.299532
730 41 2 -0.0543881 0.562189 0.314315 0.299627
725 41 2 -0.0543881 0.665954 0.263476 0.300721
734 41 1 0.0629322 0.713084 0.273925 0.300864
722 41 2 -0.0616365 0.650746 0.366072 0.299495
733 41 1 0.0629322 0.719884 0.343999 0.300082
723 41 2 -0.0543881 0.673659 0.337257 0.29996
132 8 2 -0.0616365 0.107915 0.0232646 0.318456
141 8 1 0.0622985 0.133501 0.0154639 0.31803
142 8 1 0.0622985 0.0478129 0.0879235 0.318085
135 8 2 -0.018412 0.0415312 0.0470394 0.319506
134 8 2 -0.0543881 0.0287031 0.0725804 0.318983
133 8 2 -0.0616365 0.0604848 0.0625135 0.318486
127 8 2 -0.0616365 0.0261299 0.0315356 0.320548
136 8 2 -0.0543881 0.0114406 0.0590839 0.320023
130 8 2 -0.018412 0.0873453 0.00475609 0.319507
137 8 1 0.0622985 0.00657173 0.0493966 0.320987
144 8 1 0.0629322 0.972793 0.0906252 0.320045
143 8 1 0.0629322 0.993511 0.108784 0.318927
131 8 2 -0.0543881 0.121763 0.993981 0.318984
128 8 2 -0.0616365 0.0739451 0.992279 0.320525
129 8 2 -0.0543881 0.104627 0.975957 0.320027
139 8 1 0.0629322 0.140927 0.940866 0.320074
140 8 1 0.0629322 0.160701 0.962769 0.318973
138 8 1 0.0622985 0.0874145 0.971033 0.32093
300 17 1 0.0622985 0.200072 0.00448838 0.342602
303 17 1 0.0622985 0.104309 0.726241 0.342265
289 17 2 -0.0616365 0.259241 0.945652 0.342077
290 17 2 -0.0616365 0.20964 0.959474 0.342396
298 17 2 -0.0543881 0.263307 0.891851 0.341806
292 17 2 -0.018412 0.168976 0.864232 0.342238
293 17 2 -0.0543881 0.129849 0.818688 0.342413
294 17 2 -0.0616365 0.134483 0.763801 0.342164
295 17 2 -0.0616365 0.180419 0.75187 0.341793
296 17 2 -0.0543881 0.221815 0.794107 0.341649
297 17 2 -0.018412 0.217292 0.850928 0.341874
304 17 1 0.0622985 0.186902 0.706755 0.341611
302 17 1 0.0629322 0.0917314 0.830501 0.342729
301 17 1 0.0629322 0.124496 0.937582 0.3427
291 17 2 -0.0543881 0.16494 0.922065 0.342452
306 17 1 0.0629322 0.303235 0.879282 0.341586
305 17 1 0.0629322 0.257195 0.777144 0.341348
299 17 1 0.0622985 0.293883 0.980535 0.342018
611 34 1 0.0629322 0.0640059 0.256704 0.359703
610 34 1 0.0622985 0.975272 0.289372 0.359192
609 34 1 0.0622985 0.87493 0.279399 0.359708
601 34 2 -0.0616365 0.970636 0.274419 0.359666
602 34 2 -0.0543881 0.0221084 0.255582 0.359964
612 34 1 0.0629322 0.117798 0.216423 0.360625
606 34 1 0.0622985 0.0020663 0.169237 0.362106
603 34 2 -0.018412 0.0212346 0.233899 0.360536
604 34 2 -0.0543881 0.0722424 0.213946 0.360833
595 34 2 -0.0616365 0.0664603 0.193203 0.361416
596 34 2 -0.0616365 0.0109059 0.190021 0.361653
605 34 1 0.0622985 0.105313 0.170802 0.36166
600 34 2 -0.0616365 0.917064 0.271396 0.359946
607 34 1 0.0629322 0.919111 0.213042 0.36162
597 34 2 -0.0543881 0.962195 0.211023 0.361357
598 34 2 -0.018412 0.96632 0.23452 0.360806
599 34 2 -0.0543881 0.915081 0.251167 0.360522
608 34 1 0.0629322 0.868684 0.248882 0.360706
94 6 2 -0.018412 0.582808 0.294531 0.371397
93 6 2 -0.0543881 0.565525 0.321725 0.370881
103 6 1 0.0629322 0.546103 0.293295 0.370518
95 6 2 -0.0543881 0.584718 0.232935 0.371474
104 6 1 0.0629322 0.572321 0.202391 0.371099
98 6 2 -0.0543881 0.618332 0.304276 0.372396
99 6 2 -0.018412 0.60119 0.330415 0.371865
96 6 2 -0.0616365 0.603732 0.207775 0.371996
97 6 2 -0.0616365 0.620662 0.242994 0.372483
105 6 1 0.0622985 0.604567 0.160034 0.372081
92 6 2 -0.0616365 0.570448 0.382391 0.37082
91 6 2 -0.0616365 0.585613 0.418354 0.371278
101 6 1 0.0622985 0.591692 0.468919 0.371195
102 6 1 0.0622985 0.558403 0.404519 0.370415
100 6 2 -0.0543881 0.605783 0.391928 0.371785
108 6 1 0.0629322 0.624215 0.420326 0.372169
107 6 1 0.0629322 0.635619 0.331059 0.372791
106 6 1 0.0622985 0.633492 0.220351 0.372927
545 31 2 -0.0543881 0.713452 0.27168 0.409679
546 31 2 -0.0616365 0.720136 0.212978 0.409684
555 31 1 0.0622985 0.69127 0.183748 0.409398
554 31 1 0.0629322 0.681149 0.291813 0.409373
547 31 2 -0.0616365 0.760342 0.185402 0.410048
556 31 1 0.0622985 0.760029 0.136856 0.410076
549 31 2 -0.018412 0.787733 0.277979 0.410457
548 31 2 -0.0543881 0.797551 0.217468 0.410404
557 31 1 0.0629322 0.82647 0.194782 0.410714
544 31 2 -0.018412 0.747944 0.304713 0.410068
543 31 2 -0.0543881 0.734511 0.365704 0.410087
553 31 1 0.0629322 0.701082 0.383765 0.409744
542 31 2 -0.0616365 0.765465 0.40007 0.410479
552 31 1 0.0622985 0.754928 0.446075 0.410502
558 31 1 0.0629322 0.850947 0.291287 0.411168
550 31 2 -0.0543881 0.817561 0.313464 0.410871
551 31 1 0.0622985 0.831214 0.403751 0.4112
541 31 2 -0.0616365 0.806055 0.374619 0.410863
792 44 1 0.0629322 0.636569 0.663628 0.424247
776 44 2 -0.0616365 0.601236 0.650171 0.425682
786 44 1 0.0622985 0.622645 0.629062 0.426082
775 44 2 -0.0616365 0.635121 0.644657 0.425167
785 44 1 0.0622985 0.676852 0.617523 0.425146
791 44 1 0.0629322 0.557199 0.724673 0.42372
787 44 1 0.0629322 0.529477 0.692867 0.426126
777 44 2 -0.0543881 0.55015 0.683478 0.425692
778 44 2 -0.018412 0.528165 0.709687 0.425189
783 44 2 -0.018412 0.559633 0.70348 0.424677
784 44 2 -0.0543881 0.61258 0.670787 0.424667
790 44 1 0.0622985 0.465241 0.782185 0.42378
781 44 2 -0.0616365 0.482589 0.761642 0.424181
779 44 2 -0.0543881 0.478088 0.740893 0.425231
780 44 2 -0.0616365 0.454867 0.768734 0.424739
789 44 1 0.0622985 0.413612 0.796203 0.424806
788 44 1 0.0629322 0.455458 0.748104 0.425662
782 44 2 -0.0543881 0.534494 0.72804 0.424151
231 13 1 0.0622985 0.868253 0.691557 0.439149
228 13 1 0.0622985 0.00197442 0.587688 0.441539
229 13 1 0.0629322 0.959884 0.572715 0.440576
220 13 2 -0.018412 0.929509 0.666233 0.440464
221 13 2 -0.0543881 0.909295 0.656686 0.439912
230 13 1 0.0629322 0.91446 0.612484 0.439692
219 13 2 -0.0543881 0.954514 0.618629 0.44076
218 13 2 -0.0616365 0.976672 0.626722 0.441319
224 13 2 -0.0543881 0.893448 0.767209 0.440455
233 13 1 0.0629322 0.888968 0.812922 0.440666
222 13 2 -0.0616365 0.881343 0.702223 0.439623
223 13 2 -0.0616365 0.87383 0.757429 0.439891
232 13 1 0.0622985 0.849485 0.793997 0.439651
217 13 2 -0.0616365 0.971731 0.681389 0.441589
227 13 1 0.0622985 0.986876 0.688233 0.442044
226 13 2 -0.0543881 0.944985 0.727753 0.441312
225 13 2 -0.018412 0.921256 0.720209 0.440753
234 13 1 0.0629322 0.936781 0.771821 0.441568
355 20 1 0.0629322 0.680079 0.642075 0.46912
344 20 2 -0.0616365 0.7013 0.590332 0.469895
345 20 2 -0.0543881 0.68379 0.644467 0.469622
360 20 1 0.0629322 0.700636 0.627171 0.471336
343 20 2 -0.0616365 0.710405 0.586657 0.470474
352 20 2 -0.0543881 0.694689 0.634689 0.47085
353 20 1 0.0622985 0.725163 0.546312 0.470712
354 20 1 0.0622985 0.708004 0.54976 0.46959
358 20 1 0.0622985 0.650324 0.831116 0.471025
347 20 2 -0.0543881 0.666519 0.750548 0.469739
348 20 2 -0.0616365 0.656035 0.797989 0.470125
349 20 2 -0.0616365 0.659092 0.791274 0.470728
356 20 1 0.0629322 0.664468 0.753478 0.469236
357 20 1 0.0622985 0.642931 0.842304 0.46995
350 20 2 -0.0543881 0.672 0.736507 0.470977
351 20 2 -0.018412 0.679967 0.68895 0.470597
346 20 2 -0.018412 0.677142 0.693174 0.469989
359 20 1 0.0629322 0.674559 0.732731 0.47147
697 39 1 0.0629322 0.0267249 0.0641479 0.489773
700 39 1 0.0622985 0.814658 0.205778 0.490281
692 39 2 -0.0543881 0.836628 0.11113 0.490264
691 39 2 -0.0616365 0.848626 0.17012 0.49018
701 39 1 0.0629322 0.790285 0.0978121 0.490421
698 39 1 0.0629322 0.991245 0.164796 0.489737
699 39 1 0.0622985 0.911354 0.238643 0.489954
690 39 2 -0.0616365 0.902024 0.189155 0.490003
689 39 2 -0.0543881 0.945307 0.149446 0.489894
687 39 2 -0.0543881 0.98206 0.0510423 0.4899
688 39 2 -0.018412 0.937452 0.089808 0.489986
693 39 2 -0.018412 0.882472 0.0707541 0.490181
694 39 2 -0.0543881 0.874393 0.0120314 0.490284
696 39 1 0.0622985 0.00710869 0.958181 0.489955
685 39 2 -0.0616365 0.917768 0.970812 0.490178
695 39 1 0.0622985 0.910648 0.923203 0.490249
686 39 2 -0.0616365 0.971929 0.990587 0.490003
702 39 1 0.0629322 0.830378 0.995348 0.490446
11 1 1 0.0622985 0.442787 0.246416 0.500264
1 1 2 -0.0616365 0.465668 0.27193 0.50063
2 1 2 -0.0616365 0.490635 0.327198 0.500518
10 1 2 -0.0543881 0.474825 0.248079 0.501185
18 1 1 0.0629322 0.456397 0.200508 0.501266
8 1 2 -0.0543881 0.509008 0.260401 0.502195
17 1 1 0.0629322 0.493283 0.213772 0.502308
7 1 2 -0.0616365 0.533674 0.293059 0.502657
16 1 1 0.0622985 0.530024 0.272895 0.503104
9 1 2 -0.018412 0.504349 0.28208 0.501616
12 1 1 0.0622985 0.488946 0.348002 0.500077
3 1 2 -0.0543881 0.522176 0.358933 0.500953
13 1 1 0.0629322 0.537202 0.403965 0.500792
14 1 1 0.0629322 0.578118 0.413331 0.501913
15 1 1 0.0622985 0.576411 0.379393 0.502895
4 1 2 -0.018412 0.528598 0.33892 0.501518
5 1 2 -0.0543881 0.555934 0.370181 0.501975
6 1 2 -0.0616365 0.558023 0.348806 0.502543
896 50 1 0.0629322 0.571023 0.103459 0.512467
887 50 2 -0.0543881 0.538221 0.127762 0.512736
888 50 2 -0.0616365 0.50679 0.175331 0.512432
897 50 1 0.0622985 0.508954 0.183261 0.511947
898 50 1 0.0622985 0.444154 0.244699 0.512549
900 50 1 0.0629322 0.464334 0.181589 0.514547
886 50 2 -0.018412 0.536151 0.119721 0.51335
891 50 2 -0.018412 0.497831 0.159293 0.513669
895 50 1 0.0629322 0.597887 0.0447184 0.513402
883 50 2 -0.0616365 0.5261 0.106164 0.514553
884 50 2 -0.0616365 0.559644 0.0693248 0.514236
892 50 2 -0.0543881 0.492919 0.151192 0.51429
893 50 1 0.0622985 0.521999 0.106143 0.515033
894 50 1 0.0622985 0.582761 0.0322228 0.514457
885 50 2 -0.0543881 0.568636 0.0771159 0.513641
890 50 2 -0.0543881 0.465824 0.202784 0.513381
899 50 1 0.0629322 0.437337 0.230107 0.513662
889 50 2 -0.0616365 0.470293 0.211257 0.512785
424 24 2 -0.0543881 0.589659 0.0959695 0.53499
415 24 2 -0.0616365 0.577682 0.0374393 0.534841
416 24 2 -0.0616365 0.616611 0.00911036 0.534479
422 24 2 -0.0543881 0.645607 0.185571 0.534864
423 24 2 -0.018412 0.637967 0.124951 0.534766
425 24 1 0.0622985 0.537673 0.0138972 0.535016
427 24 1 0.0629322 0.698431 0.00750435 0.534005
428 24 1 0.0629322 0.764781 0.102312 0.533971
417 24 2 -0.0543881 0.666868 0.0363196 0.534267
421 24 2 -0.0616365 0.696225 0.215652 0.534669
430 24 1 0.0622985 0.696722 0.262813 0.534745
418 24 2 -0.018412 0.676951 0.0938494 0.534401
419 24 2 -0.0543881 0.729394 0.12297 0.534244
420 24 2 -0.0616365 0.740794 0.183092 0.534417
429 24 1 0.0622985 0.781656 0.208119 0.534259
426 24 1 0.0622985 0.610842 0.9605 0.534328
432 24 1 0.0629322 0.558437 0.11966 0.535299
431 24 1 0.0629322 0.611655 0.209698 0.535138
769 43 1 0.0629322 0.618235 0.112088 0.541183
761 43 2 -0.0543881 0.689705 0.20907 0.540888
762 43 2 -0.0616365 0.721886 0.263284 0.540827
763 43 2 -0.0616365 0.726891 0.3024 0.541295
771 43 1 0.0622985 0.746373 0.270125 0.540434
770 43 1 0.0629322 0.695632 0.175349 0.540505
772 43 1 0.0622985 0.758467 0.341169 0.541278
767 43 1 0.0622985 0.586041 0.180146 0.542999
768 43 1 0.0622985 0.577027 0.0964772 0.542187
758 43 2 -0.0616365 0.60086 0.13847 0.542104
759 43 2 -0.0543881 0.628303 0.147379 0.541541
760 43 2 -0.018412 0.661117 0.196056 0.541451
757 43 2 -0.0616365 0.606095 0.179822 0.542547
766 43 2 -0.0543881 0.64048 0.228933 0.542435
774 43 1 0.0629322 0.648908 0.26381 0.542779
764 43 2 -0.0543881 0.700035 0.290677 0.541802
773 43 1 0.0629322 0.709554 0.317967 0.542231
765 43 2 -0.018412 0.668132 0.238528 0.541907
163 10 2 -0.0616365 0.37798 0.661409 0.556311
173 10 1 0.0622985 0.349168 0.623856 0.55646
164 10 2 -0.0616365 0.438212 0.656543 0.556383
174 10 1 0.0622985 0.460285 0.617305 0.556605
179 10 1 0.0629322 0.318487 0.811937 0.555494
180 10 1 0.0629322 0.306253 0.713532 0.555981
178 10 1 0.0622985 0.379997 0.896865 0.555211
170 10 2 -0.0543881 0.366874 0.810608 0.55562
169 10 2 -0.0616365 0.400959 0.857028 0.555407
171 10 2 -0.018412 0.390224 0.75939 0.555891
177 10 1 0.0622985 0.490035 0.892967 0.555387
176 10 1 0.0629322 0.535072 0.800505 0.555813
167 10 2 -0.0543881 0.485202 0.804896 0.555779
168 10 2 -0.0616365 0.459914 0.854952 0.555513
165 10 2 -0.0543881 0.473338 0.705504 0.556257
166 10 2 -0.018412 0.450883 0.756642 0.555976
175 10 1 0.0629322 0.521573 0.699266 0.556267
172 10 2 -0.0543881 0.354882 0.712185 0.556063
331 19 2 -0.0616365 0.642156 0.0698265 0.585696
330 19 2 -0.0616365 0.599524 0.101808 0.585411
339 19 1 0.0622985 0.611579 0.110124 0.584917
329 19 2 -0.0543881 0.550582 0.123288 0.585703
338 19 1 0.0629322 0.515545 0.150668 0.585449
340 19 1 0.0622985 0.68154 0.0516819 0.585451
332 19 2 -0.0543881 0.637551 0.0594411 0.586282
333 19 2 -0.018412 0.587462 0.0803824 0.586593
328 19 2 -0.018412 0.544455 0.111756 0.586282
327 19 2 -0.0543881 0.496832 0.134905 0.586598
342 19 1 0.0629322 0.617524 0.0436956 0.587381
335 19 1 0.0622985 0.534732 0.0868226 0.587967
334 19 2 -0.0543881 0.581927 0.0700663 0.587164
325 19 2 -0.0616365 0.534314 0.0922207 0.58749
326 19 2 -0.0616365 0.492271 0.124225 0.587209
336 19 1 0.0622985 0.456457 0.145822 0.587481
337 19 1 0.0629322 0.46129 0.159965 0.586381
341 19 1 0.0629322 0.674124 0.0325663 0.586498
559 32 2 -0.0616365 0.647982 0.643751 0.614281
560 32 2 -0.0616365 0.674354 0.651547 0.613743
570 32 1 0.0622985 0.720022 0.63627 0.613642
572 32 1 0.0629322 0.57125 0.732785 0.612502
573 32 1 0.0622985 0.471429 0.766576 0.61269
561 32 2 -0.0543881 0.640974 0.678621 0.613301
562 32 2 -0.018412 0.584912 0.697632 0.613403
563 32 2 -0.0543881 0.552368 0.723971 0.61296
571 32 1 0.0629322 0.660014 0.680919 0.612856
564 32 2 -0.0616365 0.496558 0.746084 0.61305
566 32 2 -0.0543881 0.504591 0.713232 0.614053
567 32 2 -0.018412 0.561872 0.693478 0.613961
568 32 2 -0.0543881 0.593214 0.66856 0.614408
575 32 1 0.0629322 0.486539 0.70771 0.614498
565 32 2 -0.0616365 0.472645 0.740402 0.61361
574 32 1 0.0622985 0.427523 0.75567 0.613751
576 32 1 0.0629322 0.575967 0.658913 0.614874
569 32 1 0.0622985 0.667 0.623124 0.614682
70 4 1 0.0622985 0.885086 0.757669 0.620769
72 4 1 0.0629322 0.791782 0.707633 0.622607
65 4 1 0.0622985 0.802677 0.738378 0.623598
62 4 2 -0.0543881 0.853891 0.74829 0.621688
71 4 1 0.0629322 0.818098 0.716503 0.62159
61 4 2 -0.0616365 0.890933 0.769936 0.621242
60 4 2 -0.0616365 0.932182 0.811063 0.621383
69 4 1 0.0622985 0.961419 0.83013 0.621031
64 4 2 -0.0543881 0.826733 0.740463 0.622697
55 4 2 -0.0616365 0.833592 0.75793 0.623278
63 4 2 -0.018412 0.861263 0.762575 0.622265
57 4 2 -0.0543881 0.910635 0.821909 0.622983
58 4 2 -0.018412 0.903515 0.803357 0.6224
59 4 2 -0.0543881 0.938001 0.829376 0.62195
67 4 1 0.0629322 0.944724 0.857734 0.623092
56 4 2 -0.0616365 0.876428 0.798648 0.623434
66 4 1 0.0622985 0.877596 0.812255 0.623906
68 4 1 0.0629322 0.971478 0.865643 0.622044
815 46 2 -0.0543881 0.457587 0.574148 0.664916
824 46 1 0.0629322 0.460574 0.557456 0.664436
814 46 2 -0.018412 0.465229 0.634567 0.665045
816 46 2 -0.0616365 0.441017 0.53628 0.665361
825 46 1 0.0622985 0.435227 0.487265 0.665247
823 46 1 0.0629322 0.498013 0.661041 0.66414
813 46 2 -0.0543881 0.485646 0.673442 0.664611
812 46 2 -0.0616365 0.489917 0.733139 0.664757
822 46 1 0.0622985 0.50388 0.764975 0.664395
811 46 2 -0.0616365 0.478436 0.753278 0.665325
821 46 1 0.0622985 0.486865 0.799124 0.665434
511 29 2 -0.0616365 0.315235 0.325978 0.666826
512 29 2 -0.0543881 0.300591 0.290071 0.667291
513 29 2 -0.018412 0.247238 0.295141 0.667573
506 29 2 -0.0616365 0.138662 0.305412 0.66815
514 29 2 -0.0543881 0.234243 0.255722 0.668029
516 29 1 0.0622985 0.0958406 0.308295 0.668393
522 29 1 0.0629322 0.26626 0.22194 0.668197
515 29 1 0.0622985 0.169033 0.232939 0.668694
505 29 2 -0.0616365 0.178539 0.26102 0.668299
520 29 1 0.0622985 0.35943 0.322537 0.666619
521 29 1 0.0629322 0.333365 0.256455 0.667431
510 29 2 -0.0616365 0.27287 0.366724 0.666653
509 29 2 -0.0543881 0.220197 0.373858 0.666929
519 29 1 0.0622985 0.284179 0.392282 0.666266
518 29 1 0.0629322 0.189009 0.407134 0.666746
508 29 2 -0.018412 0.206685 0.338136 0.667405
517 29 1 0.0629322 0.119873 0.37892 0.667584
507 29 2 -0.0543881 0.152249 0.344194 0.667698
826 46 1 0.0622985 0.412417 0.530647 0.666255
818 46 2 -0.0543881 0.439317 0.616753 0.666077
827 46 1 0.0629322 0.429502 0.632112 0.666542
819 46 2 -0.018412 0.456117 0.655064 0.665631
817 46 2 -0.0616365 0.430005 0.558181 0.665925
828 46 1 0.0629322 0.451104 0.730494 0.666213
820 46 2 -0.0543881 0.463252 0.714365 0.665762
257 15 2 -0.0543881 0.331362 0.184123 0.687555
267 15 1 0.0622985 0.24151 0.216188 0.687809
266 15 1 0.0629322 0.339183 0.216573 0.687188
256 15 2 -0.018412 0.376289 0.144229 0.687683
255 15 2 -0.0543881 0.427377 0.143786 0.687348
254 15 2 -0.0616365 0.471533 0.103866 0.687487
265 15 1 0.0629322 0.432207 0.178494 0.686992
264 15 1 0.0622985 0.512117 0.104077 0.687218
258 15 2 -0.0616365 0.279478 0.183951 0.687901
269 15 1 0.0629322 0.312122 0.073446 0.688877
259 15 2 -0.0616365 0.274045 0.14475 0.688361
260 15 2 -0.0543881 0.318807 0.10684 0.688512
268 15 1 0.0622985 0.232489 0.145473 0.688638
261 15 2 -0.018412 0.368517 0.104777 0.688158
270 15 1 0.0629322 0.409346 0.033348 0.688668
262 15 2 -0.0543881 0.413131 0.0650354 0.688301
263 15 1 0.0622985 0.49907 0.0326792 0.688038
253 15 2 -0.0616365 0.464261 0.0637528 0.687956
380 22 2 -0.0616365 0.433937 0.577386 0.708466
390 22 1 0.0622985 0.407368 0.575134 0.708052
379 22 2 -0.0616365 0.408238 0.556599 0.708993
388 22 2 -0.0543881 0.44392 0.552506 0.709495
389 22 1 0.0622985 0.361657 0.540873 0.708988
396 22 1 0.0629322 0.430463 0.537057 0.709937
381 22 2 -0.0543881 0.493033 0.592082 0.708454
391 22 1 0.0629322 0.516512 0.602514 0.708034
382 22 2 -0.018412 0.527678 0.583597 0.708937
392 22 1 0.0629322 0.605741 0.613672 0.708491
383 22 2 -0.0543881 0.588102 0.594374 0.708907
387 22 2 -0.018412 0.504722 0.565677 0.709483
386 22 2 -0.0543881 0.541069 0.557113 0.709975
385 22 2 -0.0616365 0.601515 0.567972 0.709902
384 22 2 -0.0616365 0.625058 0.586686 0.709376