ITEM: TIMESTEP
0
ITEM: NUMBER OF ATOMS
50
ITEM: BOX BOUNDS pp pp pp
0.0000000000000000e+00 6.4329369999999999e+00
0.0000000000000000e+00 6.4329369999999999e+00
0.0000000000000000e+00 6.4329374999999999e+01
ITEM: ATOMS id mol type q xs ys zs
11 3 1 -0.0776621 0.249995 0.75 0.347156
12 3 2 0.0194155 0.275986 0.827725 0.362026
13 3 2 0.0194155 0.308491 0.590834 0.347992
14 3 2 0.0194155 0.331808 0.833974 0.334875
15 3 2 0.0194155 0.0837254 0.747481 0.343733
21 5 1 -0.0776621 0.874997 0.874997 0.270735
22 5 2 0.0194155 0.908869 0.036012 0.266547
23 5 2 0.0194155 0.899589 0.775043 0.257232
24 5 2 0.0194155 0.713531 0.862545 0.275834
25 5 2 0.0194155 0.978014 0.826403 0.283325
38 8 2 0.0194155 0.0571434 0.320336 0.374518
2 1 2 0.0194155 0.394952 0.632728 0.498676
3 1 2 0.0194155 0.438664 0.370033 0.490959
5 1 2 0.0194155 0.653185 0.542909 0.494067
26 6 1 -0.0776621 0.625002 0.124997 0.423578
27 6 2 0.0194155 0.510871 0.248969 0.425659
28 6 2 0.0194155 0.549018 0.974351 0.42547
29 6 2 0.0194155 0.74801 0.141288 0.435167
30 6 2 0.0194155 0.69211 0.135397 0.408017
36 8 1 -0.0776621 0.187504 0.312501 0.385367
37 8 2 0.0194155 0.255902 0.157175 0.384882
39 8 2 0.0194155 0.304635 0.427316 0.38098
40 8 2 0.0194155 0.132335 0.345161 0.401089
1 1 1 -0.0776621 0.500005 0.500005 0.5
4 1 2 0.0194155 0.513203 0.454334 0.516299
16 4 1 -0.0776621 0.375008 0.375008 0.576423
17 4 2 0.0194155 0.294547 0.253041 0.58507
18 4 2 0.0194155 0.503363 0.306858 0.567644
19 4 2 0.0194155 0.435711 0.490647 0.58727
20 4 2 0.0194155 0.266379 0.449453 0.565704
46 10 1 -0.0776621 0.937503 0.0625064 0.538211
47 10 2 0.0194155 0.82987 0.978439 0.548297
48 10 2 0.0194155 0.0551945 0.139858 0.547692
49 10 2 0.0194155 0.852021 0.178457 0.529226
50 10 2 0.0194155 0.0129277 0.953241 0.527628
6 2 1 -0.0776621 0.75 0.249995 0.652843
7 2 2 0.0194155 0.786484 0.189789 0.668293
8 2 2 0.0194155 0.722407 0.120427 0.642226
9 2 2 0.0194155 0.880282 0.342923 0.647169
10 2 2 0.0194155 0.610825 0.346871 0.653687
31 7 1 -0.0776621 0.124997 0.625002 0.729266
32 7 2 0.0194155 0.995881 0.649019 0.740024
33 7 2 0.0194155 0.271431 0.627334 0.737856
34 7 2 0.0194155 0.125588 0.748756 0.717643
35 7 2 0.0194155 0.107105 0.474884 0.721538
41 9 1 -0.0776621 0.687493 0.812506 0.691054
42 9 2 0.0194155 0.524302 0.773986 0.688392
43 9 2 0.0194155 0.722765 0.798158 0.707601
44 9 2 0.0194155 0.717013 0.971873 0.685999
45 9 2 0.0194155 0.785924 0.705976 0.682226
ITEM: TIMESTEP
796
ITEM: NUMBER OF ATOMS
50
ITEM: BOX BOUNDS pp pp pp
0.0000000000000000e+00 6.4329369999999999e+00
0.0000000000000000e+00 6.4329369999999999e+00
0.0000000000000000e+00 6.4329374999999999e+01
ITEM: ATOMS id mol type q xs ys zs
11 3 1 -0.0776621 0.260724 0.783781 0.351263
12 3 2 0.0194155 0.246523 0.810914 0.368034
13 3 2 0.0194155 0.403035 0.69525 0.348133
14 3 2 0.0194155 0.267716 0.933404 0.343121
15 3 2 0.0194155 0.125636 0.695368 0.345783
21 5 1 -0.0776621 0.774956 1.00431 0.326665
22 5 2 0.0194155 0.866556 0.111296 0.336274
23 5 2 0.0194155 0.620849 1.07145 0.323805
24 5 2 0.0194155 0.757868 0.855393 0.33479
25 5 2 0.0194155 0.854639 0.979081 0.311802
38 8 2 0.0194155 0.118408 0.264154 0.364096
40 8 2 0.0194155 0.09468 0.422158 0.386889
37 8 2 0.0194155 0.198015 0.164269 0.388844
39 8 2 0.0194155 0.346525 0.364769 0.376487
26 6 1 -0.0776621 0.709361 -0.0235494 0.38379
27 6 2 0.0194155 0.762542 0.0807212 0.396189
28 6 2 0.0194155 0.603979 0.85941 0.390325
29 6 2 0.0194155 0.843742 0.8988 0.376731
30 6 2 0.0194155 0.627118 0.0669422 0.371911
36 8 1 -0.0776621 0.18941 0.303807 0.379081
1 1 1 -0.0776621 0.564607 0.645469 0.535331
4 1 2 0.0194155 0.49378 0.639672 0.550831
16 4 1 -0.0776621 0.369883 0.152338 0.559781
17 4 2 0.0194155 0.308427 0.00351626 0.565394
18 4 2 0.0194155 0.384217 0.147368 0.542799
19 4 2 0.0194155 0.523148 0.18046 0.566703
20 4 2 0.0194155 0.263591 0.27811 0.564209
46 10 1 -0.0776621 0.891747 0.133888 0.530733
47 10 2 0.0194155 0.744979 0.138094 0.522064
48 10 2 0.0194155 0.86429 0.0691916 0.546268
49 10 2 0.0194155 0.953811 0.292049 0.532181
50 10 2 0.0194155 1.00407 0.0361081 0.522425
6 2 1 -0.0776621 0.694805 0.331642 0.664163
7 2 2 0.0194155 0.690142 0.33508 0.681203
8 2 2 0.0194155 0.804972 0.212042 0.65903
9 2 2 0.0194155 0.744777 0.483777 0.658305
10 2 2 0.0194155 0.539444 0.295582 0.658132
31 7 1 -0.0776621 0.184483 0.511997 0.691075
32 7 2 0.0194155 0.0450907 0.452234 0.698866
33 7 2 0.0194155 0.32282 0.437372 0.697683
34 7 2 0.0194155 0.194452 0.680668 0.693368
35 7 2 0.0194155 0.175567 0.477759 0.674395
41 9 1 -0.0776621 0.672526 0.843808 0.692747
42 9 2 0.0194155 0.584209 0.819237 0.678368
43 9 2 0.0194155 0.678082 0.698436 0.701641
44 9 2 0.0194155 0.596554 0.964662 0.702074
45 9 2 0.0194155 0.831178 0.893016 0.688895
2 1 2 0.0194155 0.507207 0.782508 0.526966
5 1 2 0.0194155 0.734162 0.655064 0.536865
3 1 2 0.0194155 0.523265 0.504639 0.526654
