ITEM: TIMESTEP
0
ITEM: NUMBER OF ATOMS
50
ITEM: BOX BOUNDS pp pp pp
0.0000000000000000e+00 6.4329369999999999e+00
0.0000000000000000e+00 6.4329369999999999e+00
0.0000000000000000e+00 6.4329374999999999e+01
ITEM: ATOMS id mol type q xs ys zs
11 3 1 -0.0776621 0.260724 0.783781 0.351263
12 3 2 0.0194155 0.246523 0.810914 0.368034
13 3 2 0.0194155 0.403035 0.69525 0.348133
14 3 2 0.0194155 0.267716 0.933404 0.343121
15 3 2 0.0194155 0.125636 0.695368 0.345783
21 5 1 -0.0776621 0.774956 0.0043144 0.326665
22 5 2 0.0194155 0.866556 0.111296 0.336274
23 5 2 0.0194155 0.620849 0.0714519 0.323805
24 5 2 0.0194155 0.757868 0.855393 0.33479
25 5 2 0.0194155 0.854639 0.979081 0.311802
38 8 2 0.0194155 0.118408 0.264154 0.364096
30 6 2 0.0194155 0.627118 0.0669422 0.371911
40 8 2 0.0194155 0.09468 0.422158 0.386889
37 8 2 0.0194155 0.198015 0.164269 0.388844
39 8 2 0.0194155 0.346525 0.364769 0.376487
26 6 1 -0.0776621 0.709361 0.976451 0.38379
27 6 2 0.0194155 0.762542 0.0807212 0.396189
28 6 2 0.0194155 0.603979 0.85941 0.390325
29 6 2 0.0194155 0.843742 0.8988 0.376731
36 8 1 -0.0776621 0.18941 0.303807 0.379081
1 1 1 -0.0776621 0.564607 0.645469 0.535331
4 1 2 0.0194155 0.49378 0.639672 0.550831
16 4 1 -0.0776621 0.369883 0.152338 0.559781
17 4 2 0.0194155 0.308427 0.00351626 0.565394
18 4 2 0.0194155 0.384217 0.147368 0.542799
19 4 2 0.0194155 0.523148 0.18046 0.566703
20 4 2 0.0194155 0.263591 0.27811 0.564209
46 10 1 -0.0776621 0.891747 0.133888 0.530733
47 10 2 0.0194155 0.744979 0.138094 0.522064
48 10 2 0.0194155 0.86429 0.0691916 0.546268
49 10 2 0.0194155 0.953811 0.292049 0.532181
50 10 2 0.0194155 0.00406841 0.0361081 0.522425
2 1 2 0.0194155 0.507207 0.782508 0.526966
5 1 2 0.0194155 0.734162 0.655064 0.536865
3 1 2 0.0194155 0.523265 0.504639 0.526654
6 2 1 -0.0776621 0.694805 0.331642 0.664163
7 2 2 0.0194155 0.690142 0.33508 0.681203
8 2 2 0.0194155 0.804972 0.212042 0.65903
9 2 2 0.0194155 0.744777 0.483777 0.658305
10 2 2 0.0194155 0.539444 0.295582 0.658132
31 7 1 -0.0776621 0.184483 0.511997 0.691075
32 7 2 0.0194155 0.0450907 0.452234 0.698866
33 7 2 0.0194155 0.32282 0.437372 0.697683
34 7 2 0.0194155 0.194452 0.680668 0.693368
35 7 2 0.0194155 0.175567 0.477759 0.674395
41 9 1 -0.0776621 0.672526 0.843808 0.692747
42 9 2 0.0194155 0.584209 0.819237 0.678368
43 9 2 0.0194155 0.678082 0.698436 0.701641
44 9 2 0.0194155 0.596554 0.964662 0.702074
45 9 2 0.0194155 0.831178 0.893016 0.688895
ITEM: TIMESTEP
10
ITEM: NUMBER OF ATOMS
50
ITEM: BOX BOUNDS pp pp pp
0.0000000000000000e+00 6.4329369999999999e+00
0.0000000000000000e+00 6.4329369999999999e+00
0.0000000000000000e+00 6.4329374999999999e+01
ITEM: ATOMS id mol type q xs ys zs
11 3 1 -0.0776621 0.26234 0.78944 0.351608
12 3 2 0.0194155 0.246891 0.786713 0.368407
13 3 2 0.0194155 0.412662 0.716032 0.348556
14 3 2 0.0194155 0.265448 0.95186 0.347596
15 3 2 0.0194155 0.13267 0.707623 0.344187
21 5 1 -0.0776621 0.777426 0.0107254 0.326948
22 5 2 0.0194155 0.882658 0.119843 0.334522
23 5 2 0.0194155 0.630113 0.090429 0.326012
24 5 2 0.0194155 0.766032 0.88017 0.337526
25 5 2 0.0194155 0.844722 0.970076 0.312027
38 8 2 0.0194155 0.115875 0.275623 0.365011
30 6 2 0.0194155 0.622237 0.0553188 0.371627
40 8 2 0.0194155 0.10825 0.407135 0.389662
37 8 2 0.0194155 0.209005 0.155902 0.388871
39 8 2 0.0194155 0.352844 0.35908 0.377147
26 6 1 -0.0776621 0.710105 0.96759 0.383236
27 6 2 0.0194155 0.752702 0.0628651 0.396525
28 6 2 0.0194155 0.617169 0.842028 0.388907
29 6 2 0.0194155 0.846851 0.895492 0.376688
36 8 1 -0.0776621 0.195489 0.298751 0.379966
1 1 1 -0.0776621 0.564937 0.640857 0.535257
4 1 2 0.0194155 0.493393 0.653142 0.550507
16 4 1 -0.0776621 0.371501 0.149295 0.559274
17 4 2 0.0194155 0.335519 0.000197614 0.566151
18 4 2 0.0194155 0.355877 0.143983 0.542461
19 4 2 0.0194155 0.526204 0.192385 0.563545
20 4 2 0.0194155 0.263627 0.264939 0.565297
46 10 1 -0.0776621 0.888205 0.132469 0.530343
47 10 2 0.0194155 0.730927 0.1485 0.523789
48 10 2 0.0194155 0.879472 0.0714901 0.546442
49 10 2 0.0194155 0.963629 0.284795 0.530915
50 10 2 0.0194155 -0.0138543 0.0322515 0.520451
2 1 2 0.0194155 0.5115 0.772395 0.525813
5 1 2 0.0194155 0.734089 0.636932 0.537034
3 1 2 0.0194155 0.511774 0.492879 0.529122
6 2 1 -0.0776621 0.683162 0.330692 0.664011
7 2 2 0.0194155 0.690771 0.337722 0.681072
8 2 2 0.0194155 0.794387 0.212049 0.658352
9 2 2 0.0194155 0.725552 0.487382 0.658184
10 2 2 0.0194155 0.522734 0.294392 0.659924
31 7 1 -0.0776621 0.17989 0.519701 0.691356
32 7 2 0.0194155 0.0473404 0.446434 0.698912
33 7 2 0.0194155 0.325783 0.458278 0.697781
34 7 2 0.0194155 0.177433 0.690283 0.692425
35 7 2 0.0194155 0.181208 0.475741 0.675129
41 9 1 -0.0776621 0.677887 0.846604 0.692021
42 9 2 0.0194155 0.569024 0.80685 0.67961
43 9 2 0.0194155 0.677585 0.723039 0.704196
44 9 2 0.0194155 0.623496 0.990376 0.699287
45 9 2 0.0194155 0.835064 0.87373 0.686118
ITEM: TIMESTEP
20
ITEM: NUMBER OF ATOMS
50
ITEM: BOX BOUNDS pp pp pp
0.0000000000000000e+00 6.4329369999999999e+00
0.0000000000000000e+00 6.4329369999999999e+00
0.0000000000000000e+00 6.4329374999999999e+01
ITEM: ATOMS id mol type q xs ys zs
11 3 1 -0.0776621 0.26652 0.797017 0.352502
12 3 2 0.0194155 0.224592 0.750344 0.367915
13 3 2 0.0194155 0.407867 0.730681 0.346062
14 3 2 0.0194155 0.261294 0.959211 0.349022
15 3 2 0.0194155 0.14845 0.723372 0.342712
21 5 1 -0.0776621 0.78237 0.0208909 0.327705
22 5 2 0.0194155 0.906765 0.128346 0.331853
23 5 2 0.0194155 0.634011 0.0918254 0.325336
24 5 2 0.0194155 0.767813 0.88524 0.337515
25 5 2 0.0194155 0.809581 0.954059 0.312796
38 8 2 0.0194155 0.109734 0.277518 0.366802
30 6 2 0.0194155 0.628077 0.0491239 0.37154
40 8 2 0.0194155 0.119944 0.402902 0.391109
37 8 2 0.0194155 0.216153 0.138507 0.386818
39 8 2 0.0194155 0.356454 0.3598 0.377424
26 6 1 -0.0776621 0.711015 0.954743 0.382929
27 6 2 0.0194155 0.744599 0.0603303 0.39556
28 6 2 0.0194155 0.61406 0.83028 0.387316
29 6 2 0.0194155 0.852828 0.914235 0.375436
36 8 1 -0.0776621 0.20247 0.293953 0.381106
1 1 1 -0.0776621 0.563168 0.634265 0.535521
4 1 2 0.0194155 0.501427 0.678562 0.550492
16 4 1 -0.0776621 0.37301 0.147136 0.558905
17 4 2 0.0194155 0.359948 -0.00460271 0.565723
18 4 2 0.0194155 0.335253 0.130802 0.542536
19 4 2 0.0194155 0.524313 0.203996 0.55972
20 4 2 0.0194155 0.264422 0.252187 0.5664
46 10 1 -0.0776621 0.886347 0.13272 0.529966
47 10 2 0.0194155 0.721931 0.152978 0.525518
48 10 2 0.0194155 0.893579 0.0627637 0.545833
49 10 2 0.0194155 0.964589 0.283998 0.529499
50 10 2 0.0194155 -0.0472145 0.0176274 0.519134
2 1 2 0.0194155 0.530377 0.752803 0.523877
5 1 2 0.0194155 0.732818 0.631546 0.536229
3 1 2 0.0194155 0.504112 0.491107 0.528915
6 2 1 -0.0776621 0.670987 0.33179 0.66418
7 2 2 0.0194155 0.699368 0.333882 0.681099
8 2 2 0.0194155 0.772899 0.21317 0.656844
9 2 2 0.0194155 0.707726 0.483394 0.656477
10 2 2 0.0194155 0.514908 0.284546 0.659986
31 7 1 -0.0776621 0.177832 0.525273 0.691351
32 7 2 0.0194155 0.0496332 0.45627 0.699709
33 7 2 0.0194155 0.322175 0.488387 0.699779
34 7 2 0.0194155 0.150906 0.693203 0.692881
35 7 2 0.0194155 0.173369 0.480004 0.675263
41 9 1 -0.0776621 0.682023 0.85179 0.691485
42 9 2 0.0194155 0.568303 0.790796 0.680591
43 9 2 0.0194155 0.686789 0.740178 0.705208
44 9 2 0.0194155 0.649812 1.01117 0.696342
45 9 2 0.0194155 0.82779 0.84066 0.683117
ITEM: TIMESTEP
30
ITEM: NUMBER OF ATOMS
50
ITEM: BOX BOUNDS pp pp pp
0.0000000000000000e+00 6.4329369999999999e+00
0.0000000000000000e+00 6.4329369999999999e+00
0.0000000000000000e+00 6.4329374999999999e+01
ITEM: ATOMS id mol type q xs ys zs
11 3 1 -0.0776621 0.266093 0.800215 0.352513
12 3 2 0.0194155 0.245495 0.745391 0.36794
13 3 2 0.0194155 0.426062 0.752429 0.34922
14 3 2 0.0194155 0.262697 0.964563 0.354386
15 3 2 0.0194155 0.147746 0.749288 0.341123
21 5 1 -0.0776621 0.783929 0.0257545 0.327657
22 5 2 0.0194155 0.913625 0.129617 0.330771
23 5 2 0.0194155 0.647048 0.120335 0.329091
24 5 2 0.0194155 0.781649 0.919704 0.340783
25 5 2 0.0194155 0.812186 0.952592 0.31299
38 8 2 0.0194155 0.111607 0.2977 0.367572
30 6 2 0.0194155 0.617412 0.0383664 0.371147
40 8 2 0.0194155 0.13755 0.374416 0.394645
37 8 2 0.0194155 0.227876 0.139305 0.388392
39 8 2 0.0194155 0.362804 0.350721 0.377816
26 6 1 -0.0776621 0.711425 0.948241 0.382326
27 6 2 0.0194155 0.736801 0.0331262 0.396703
28 6 2 0.0194155 0.636694 0.810621 0.386375
29 6 2 0.0194155 0.856377 0.896352 0.376374
36 8 1 -0.0776621 0.20752 0.289195 0.381877
1 1 1 -0.0776621 0.564788 0.631102 0.535225
4 1 2 0.0194155 0.496696 0.679073 0.549659
16 4 1 -0.0776621 0.374285 0.143549 0.558341
17 4 2 0.0194155 0.392187 -0.00113563 0.566409
18 4 2 0.0194155 0.306983 0.12488 0.542858
19 4 2 0.0194155 0.51772 0.213809 0.557915
20 4 2 0.0194155 0.270783 0.243509 0.567244
46 10 1 -0.0776621 0.881774 0.130269 0.529537
47 10 2 0.0194155 0.714644 0.16454 0.527664
48 10 2 0.0194155 0.909372 0.0684254 0.545632
49 10 2 0.0194155 0.974755 0.27055 0.527793
50 10 2 0.0194155 -0.0607583 0.0235132 0.517399
2 1 2 0.0194155 0.526642 0.749051 0.523507
5 1 2 0.0194155 0.73207 0.602832 0.537219
3 1 2 0.0194155 0.492412 0.482185 0.532467
6 2 1 -0.0776621 0.659883 0.330218 0.663804
7 2 2 0.0194155 0.694275 0.347665 0.680468
8 2 2 0.0194155 0.768107 0.21366 0.656726
9 2 2 0.0194155 0.685139 0.48952 0.657019
10 2 2 0.0194155 0.497486 0.290326 0.662938
31 7 1 -0.0776621 0.171959 0.533688 0.691796
32 7 2 0.0194155 0.0537571 0.443301 0.699631
33 7 2 0.0194155 0.32661 0.502489 0.698595
34 7 2 0.0194155 0.143305 0.703254 0.691356
35 7 2 0.0194155 0.1874 0.47833 0.676258
41 9 1 -0.0776621 0.686931 0.852073 0.690645
42 9 2 0.0194155 0.544703 0.801852 0.683064
43 9 2 0.0194155 0.701002 0.777001 0.706897
44 9 2 0.0194155 0.669669 1.01709 0.69338
45 9 2 0.0194155 0.828122 0.827784 0.681915
ITEM: TIMESTEP
40
ITEM: NUMBER OF ATOMS
50
ITEM: BOX BOUNDS pp pp pp
0.0000000000000000e+00 6.4329369999999999e+00
0.0000000000000000e+00 6.4329369999999999e+00
0.0000000000000000e+00 6.4329374999999999e+01
ITEM: ATOMS id mol type q xs ys zs
11 3 1 -0.0776621 0.270096 0.806048 0.353225
12 3 2 0.0194155 0.220181 0.714657 0.36628
13 3 2 0.0194155 0.427012 0.768489 0.347016
14 3 2 0.0194155 0.260048 0.970452 0.355514
15 3 2 0.0194155 0.160877 0.758122 0.340706
21 5 1 -0.0776621 0.788768 0.0351767 0.328123
22 5 2 0.0194155 0.929228 0.133286 0.328507
23 5 2 0.0194155 0.649868 0.131247 0.328435
24 5 2 0.0194155 0.796332 0.91732 0.340539
25 5 2 0.0194155 0.779766 0.949651 0.313798
38 8 2 0.0194155 0.0998769 0.294504 0.370141
30 6 2 0.0194155 0.621332 0.0321436 0.371031
40 8 2 0.0194155 0.153958 0.379103 0.395737
37 8 2 0.0194155 0.229589 0.124011 0.386
39 8 2 0.0194155 0.367882 0.355034 0.379285
26 6 1 -0.0776621 0.712923 0.936458 0.382238
27 6 2 0.0194155 0.728217 0.0257395 0.396756
28 6 2 0.0194155 0.631198 0.797897 0.384804
29 6 2 0.0194155 0.864417 0.914435 0.375551
36 8 1 -0.0776621 0.214415 0.284794 0.383059
1 1 1 -0.0776621 0.563473 0.625504 0.535378
4 1 2 0.0194155 0.511225 0.696633 0.549604
16 4 1 -0.0776621 0.375561 0.141638 0.558148
17 4 2 0.0194155 0.40851 0.99541 0.565729
18 4 2 0.0194155 0.300536 0.103786 0.543136
19 4 2 0.0194155 0.508649 0.224144 0.555212
20 4 2 0.0194155 0.271064 0.231843 0.568295
46 10 1 -0.0776621 0.879977 0.129547 0.529058
47 10 2 0.0194155 0.714647 0.171716 0.528188
48 10 2 0.0194155 0.921302 0.0580636 0.544452
49 10 2 0.0194155 0.968284 0.271144 0.526537
50 10 2 0.0194155 0.90662 0.0097339 0.517108
2 1 2 0.0194155 0.541223 0.729349 0.521947
5 1 2 0.0194155 0.732681 0.599165 0.536945
3 1 2 0.0194155 0.478388 0.485042 0.531276
6 2 1 -0.0776621 0.648262 0.333468 0.663841
7 2 2 0.0194155 0.704293 0.35355 0.679899
8 2 2 0.0194155 0.745226 0.213107 0.655928
9 2 2 0.0194155 0.662254 0.483982 0.654846
10 2 2 0.0194155 0.491674 0.277163 0.663072
31 7 1 -0.0776621 0.170857 0.538904 0.691872
32 7 2 0.0194155 0.0524517 0.455579 0.700457
33 7 2 0.0194155 0.321471 0.524425 0.700395
34 7 2 0.0194155 0.125066 0.705721 0.691899
35 7 2 0.0194155 0.177436 0.48288 0.676236
41 9 1 -0.0776621 0.690311 0.856188 0.690166
42 9 2 0.0194155 0.545172 0.794052 0.684351
43 9 2 0.0194155 0.718019 0.790573 0.706889
44 9 2 0.0194155 0.692738 0.0234791 0.690875
45 9 2 0.0194155 0.805839 0.80064 0.67943
ITEM: TIMESTEP
50
ITEM: NUMBER OF ATOMS
50
ITEM: BOX BOUNDS pp pp pp
0.0000000000000000e+00 6.4329369999999999e+00
0.0000000000000000e+00 6.4329369999999999e+00
0.0000000000000000e+00 6.4329374999999999e+01
ITEM: ATOMS id mol type q xs ys zs
11 3 1 -0.0776621 0.271782 0.808324 0.353309
12 3 2 0.0194155 0.229409 0.708188 0.366134
13 3 2 0.0194155 0.434317 0.766875 0.348212
14 3 2 0.0194155 0.24737 0.970368 0.356759
15 3 2 0.0194155 0.16938 0.784799 0.339416
21 5 1 -0.0776621 0.793118 0.0432118 0.328134
22 5 2 0.0194155 0.939713 0.132237 0.325967
23 5 2 0.0194155 0.65632 0.14279 0.331018
24 5 2 0.0194155 0.801669 0.925836 0.340876
25 5 2 0.0194155 0.767305 0.95809 0.313893
38 8 2 0.0194155 0.108018 0.313457 0.371285
30 6 2 0.0194155 0.621621 0.0318097 0.371435
40 8 2 0.0194155 0.163293 0.353246 0.398698
37 8 2 0.0194155 0.237042 0.123751 0.388287
39 8 2 0.0194155 0.368974 0.344487 0.37796
26 6 1 -0.0776621 0.713983 0.927531 0.382204
27 6 2 0.0194155 0.717621 0.0102266 0.397476
28 6 2 0.0194155 0.643045 0.77936 0.383447
29 6 2 0.0194155 0.870477 0.910612 0.376057
36 8 1 -0.0776621 0.219719 0.282592 0.38428
1 1 1 -0.0776621 0.563963 0.622265 0.535137
4 1 2 0.0194155 0.505925 0.700353 0.54879
16 4 1 -0.0776621 0.375821 0.137602 0.558081
17 4 2 0.0194155 0.434914 0.999895 0.566172
18 4 2 0.0194155 0.290047 0.0942681 0.543447
19 4 2 0.0194155 0.50259 0.231861 0.555203
20 4 2 0.0194155 0.263972 0.225046 0.568124
46 10 1 -0.0776621 0.877051 0.127469 0.528407
47 10 2 0.0194155 0.713248 0.171788 0.529239
48 10 2 0.0194155 0.918091 0.0609639 0.543985
49 10 2 0.0194155 0.977489 0.256517 0.524632
50 10 2 0.0194155 0.895859 0.0123088 0.515965
2 1 2 0.0194155 0.55486 0.733905 0.522056
5 1 2 0.0194155 0.72948 0.572501 0.536466
3 1 2 0.0194155 0.469994 0.483342 0.532143
6 2 1 -0.0776621 0.636915 0.336044 0.663483
7 2 2 0.0194155 0.700702 0.372553 0.678871
8 2 2 0.0194155 0.737583 0.219412 0.655546
9 2 2 0.0194155 0.636927 0.480347 0.653539
10 2 2 0.0194155 0.482382 0.278316 0.665218
31 7 1 -0.0776621 0.167635 0.545191 0.692208
32 7 2 0.0194155 0.0515126 0.458515 0.700909
33 7 2 0.0194155 0.322072 0.532817 0.70028
34 7 2 0.0194155 0.119554 0.712422 0.691771
35 7 2 0.0194155 0.181149 0.486046 0.676697
41 9 1 -0.0776621 0.693181 0.856465 0.689579
42 9 2 0.0194155 0.531621 0.815109 0.68692
43 9 2 0.0194155 0.747243 0.796576 0.705953
44 9 2 0.0194155 0.705313 0.0225648 0.688974
45 9 2 0.0194155 0.793996 0.786004 0.678419
ITEM: TIMESTEP
60
ITEM: NUMBER OF ATOMS
50
ITEM: BOX BOUNDS pp pp pp
0.0000000000000000e+00 6.4329369999999999e+00
0.0000000000000000e+00 6.4329369999999999e+00
0.0000000000000000e+00 6.4329374999999999e+01
ITEM: ATOMS id mol type q xs ys zs
11 3 1 -0.0776621 0.272294 0.809203 0.352886
12 3 2 0.0194155 0.222611 0.713333 0.36585
13 3 2 0.0194155 0.443888 0.788452 0.350116
14 3 2 0.0194155 0.267331 0.964565 0.358678
15 3 2 0.0194155 0.16981 0.772262 0.339024
21 5 1 -0.0776621 0.794578 0.0489271 0.327834
22 5 2 0.0194155 0.942266 0.13784 0.326051
23 5 2 0.0194155 0.684 0.168571 0.333294
24 5 2 0.0194155 0.834474 0.940593 0.340914
25 5 2 0.0194155 0.750567 0.970317 0.313357
38 8 2 0.0194155 0.0927205 0.301651 0.374205
30 6 2 0.0194155 0.619109 0.0217146 0.371195
40 8 2 0.0194155 0.192911 0.369019 0.399862
37 8 2 0.0194155 0.23866 0.118115 0.38831
39 8 2 0.0194155 0.380547 0.343771 0.381112
26 6 1 -0.0776621 0.715525 0.920929 0.382328
27 6 2 0.0194155 0.711486 -0.0262764 0.399
28 6 2 0.0194155 0.652381 0.76723 0.382486
29 6 2 0.0194155 0.878721 0.907184 0.377506
36 8 1 -0.0776621 0.224613 0.280739 0.385579
1 1 1 -0.0776621 0.565199 0.620047 0.534628
4 1 2 0.0194155 0.51664 0.689107 0.549138
16 4 1 -0.0776621 0.375505 0.13425 0.558352
17 4 2 0.0194155 0.438088 0.999283 0.567104
18 4 2 0.0194155 0.306329 0.0774775 0.54295
19 4 2 0.0194155 0.492146 0.243968 0.555455
20 4 2 0.0194155 0.25418 0.209001 0.568791
46 10 1 -0.0776621 0.874232 0.123936 0.527609
47 10 2 0.0194155 0.717482 0.18785 0.527698
48 10 2 0.0194155 0.924838 0.0586016 0.542849
49 10 2 0.0194155 0.975392 0.251967 0.524104
50 10 2 0.0194155 0.888203 0.000606074 0.515982
2 1 2 0.0194155 0.5601 0.733399 0.521516
5 1 2 0.0194155 0.722295 0.555406 0.538204
3 1 2 0.0194155 0.450437 0.498035 0.531002
6 2 1 -0.0776621 0.62563 0.340551 0.662959
7 2 2 0.0194155 0.699334 0.396761 0.677118
8 2 2 0.0194155 0.726766 0.220191 0.655902
9 2 2 0.0194155 0.603623 0.480365 0.652786
10 2 2 0.0194155 0.478932 0.276711 0.666811
31 7 1 -0.0776621 0.164481 0.551567 0.69265
32 7 2 0.0194155 0.0505059 0.457589 0.70095
33 7 2 0.0194155 0.321864 0.534555 0.700076
34 7 2 0.0194155 0.123711 0.720953 0.691412
35 7 2 0.0194155 0.179667 0.490073 0.677241
41 9 1 -0.0776621 0.696026 0.855369 0.68909
42 9 2 0.0194155 0.529817 0.83081 0.689207
43 9 2 0.0194155 0.76261 0.804747 0.705271
44 9 2 0.0194155 0.731362 0.0175427 0.68842
45 9 2 0.0194155 0.766902 0.780219 0.676104
ITEM: TIMESTEP
70
ITEM: NUMBER OF ATOMS
50
ITEM: BOX BOUNDS pp pp pp
0.0000000000000000e+00 6.4329369999999999e+00
0.0000000000000000e+00 6.4329369999999999e+00
0.0000000000000000e+00 6.4329374999999999e+01
ITEM: ATOMS id mol type q xs ys zs
11 3 1 -0.0776621 0.275767 0.809726 0.353021
12 3 2 0.0194155 0.218367 0.700892 0.364748
13 3 2 0.0194155 0.436982 0.763666 0.347822
14 3 2 0.0194155 0.240975 0.97232 0.355013
15 3 2 0.0194155 0.189478 0.78221 0.337991
21 5 1 -0.0776621 0.802635 0.0600726 0.327927
22 5 2 0.0194155 0.947053 0.137882 0.321861
23 5 2 0.0194155 0.679262 0.164841 0.334026
24 5 2 0.0194155 0.827844 0.924282 0.338751
25 5 2 0.0194155 0.724822 0.988765 0.314631
38 8 2 0.0194155 0.105188 0.313977 0.37569
30 6 2 0.0194155 0.633365 0.0307635 0.37302
40 8 2 0.0194155 0.190446 0.366208 0.401791
37 8 2 0.0194155 0.24063 0.1185 0.3915
39 8 2 0.0194155 0.371892 0.334347 0.378564
26 6 1 -0.0776621 0.718649 0.908461 0.38286
27 6 2 0.0194155 0.695733 -0.028459 0.399119
28 6 2 0.0194155 0.652467 0.755557 0.380172
29 6 2 0.0194155 0.88232 0.92503 0.377902
36 8 1 -0.0776621 0.23124 0.280476 0.387425
1 1 1 -0.0776621 0.563236 0.618033 0.534426
4 1 2 0.0194155 0.515557 0.699789 0.548386
16 4 1 -0.0776621 0.375055 0.13033 0.558973
17 4 2 0.0194155 0.449026 0.997613 0.567499
18 4 2 0.0194155 0.320011 0.0675723 0.54311
19 4 2 0.0194155 0.489293 0.2473 0.556701
20 4 2 0.0194155 0.228754 0.191597 0.567105
46 10 1 -0.0776621 0.874018 0.121484 0.526705
47 10 2 0.0194155 0.715165 0.177505 0.527061
48 10 2 0.0194155 0.901038 0.0598077 0.542588
49 10 2 0.0194155 0.984717 0.239128 0.522386
50 10 2 0.0194155 0.879277 -0.00351756 0.515293
2 1 2 0.0194155 0.596054 0.738459 0.522476
5 1 2 0.0194155 0.716444 0.537343 0.53543
3 1 2 0.0194155 0.448695 0.503524 0.528599
6 2 1 -0.0776621 0.61371 0.347616 0.662652
7 2 2 0.0194155 0.69977 0.410853 0.675736
8 2 2 0.0194155 0.711066 0.233373 0.654513
9 2 2 0.0194155 0.575066 0.461348 0.650255
10 2 2 0.0194155 0.478084 0.269176 0.667502
31 7 1 -0.0776621 0.164461 0.555385 0.692791
32 7 2 0.0194155 0.0423702 0.481898 0.701889
33 7 2 0.0194155 0.314453 0.539555 0.701622
34 7 2 0.0194155 0.11786 0.722801 0.693024
35 7 2 0.0194155 0.166983 0.497595 0.67706
41 9 1 -0.0776621 0.699168 0.857736 0.688853
42 9 2 0.0194155 0.532188 0.850392 0.690615
43 9 2 0.0194155 0.781064 0.77195 0.702479
44 9 2 0.0194155 0.747209 0.0157562 0.686897
45 9 2 0.0194155 0.73833 0.766699 0.675748
ITEM: TIMESTEP
80
ITEM: NUMBER OF ATOMS
50
ITEM: BOX BOUNDS pp pp pp
0.0000000000000000e+00 6.4329369999999999e+00
0.0000000000000000e+00 6.4329369999999999e+00
0.0000000000000000e+00 6.4329374999999999e+01
ITEM: ATOMS id mol type q xs ys zs
11 3 1 -0.0776621 0.275391 0.806703 0.3519
12 3 2 0.0194155 0.216045 0.722309 0.365462
13 3 2 0.0194155 0.449833 0.783861 0.350674
14 3 2 0.0194155 0.264264 0.968211 0.356557
15 3 2 0.0194155 0.180515 0.757161 0.337851
21 5 1 -0.0776621 0.802644 0.0663957 0.327436
22 5 2 0.0194155 0.948176 0.143386 0.321883
23 5 2 0.0194155 0.722306 0.185462 0.337257
24 5 2 0.0194155 0.856497 0.93832 0.338226
25 5 2 0.0194155 0.713586 1.00794 0.314035
38 8 2 0.0194155 0.0921131 0.294928 0.378711
30 6 2 0.0194155 0.628964 0.0195443 0.373045
40 8 2 0.0194155 0.225345 0.384625 0.402816
37 8 2 0.0194155 0.24593 0.11866 0.393088
39 8 2 0.0194155 0.387165 0.326206 0.381732
26 6 1 -0.0776621 0.720875 0.904575 0.383235
27 6 2 0.0194155 0.694635 -0.0785358 0.400582
28 6 2 0.0194155 0.670397 0.74761 0.379552
29 6 2 0.0194155 0.89111 0.90563 0.380519
36 8 1 -0.0776621 0.234569 0.281478 0.388967
1 1 1 -0.0776621 0.565978 0.618319 0.533613
4 1 2 0.0194155 0.515112 0.674787 0.548675
16 4 1 -0.0776621 0.374035 0.124242 0.559371
17 4 2 0.0194155 0.442977 1.00354 0.569914
18 4 2 0.0194155 0.34642 0.0632479 0.542698
19 4 2 0.0194155 0.472428 0.258089 0.558986
20 4 2 0.0194155 0.223479 0.176958 0.567222
46 10 1 -0.0776621 0.8708 0.116395 0.525796
47 10 2 0.0194155 0.719323 0.189696 0.524392
48 10 2 0.0194155 0.906342 0.0601529 0.541655
49 10 2 0.0194155 0.985703 0.231823 0.522045
50 10 2 0.0194155 0.884545 -0.0144835 0.51512
2 1 2 0.0194155 0.597015 0.747131 0.522442
5 1 2 0.0194155 0.701088 0.517189 0.537695
3 1 2 0.0194155 0.433549 0.527127 0.527458
6 2 1 -0.0776621 0.601946 0.350378 0.661824
7 2 2 0.0194155 0.687375 0.434455 0.673562
8 2 2 0.0194155 0.708083 0.238493 0.654502
9 2 2 0.0194155 0.541152 0.471862 0.651295
10 2 2 0.0194155 0.475539 0.275343 0.669218
31 7 1 -0.0776621 0.160392 0.562061 0.693385
32 7 2 0.0194155 0.0394136 0.476388 0.701695
33 7 2 0.0194155 0.316618 0.528254 0.700217
34 7 2 0.0194155 0.14118 0.734702 0.692263
35 7 2 0.0194155 0.170813 0.500593 0.677854
41 9 1 -0.0776621 0.70067 0.85616 0.688384
42 9 2 0.0194155 0.541302 0.879513 0.69327
43 9 2 0.0194155 0.784033 0.775 0.701975
44 9 2 0.0194155 0.777875 0.00298489 0.68724
45 9 2 0.0194155 0.713792 0.78126 0.673709
ITEM: TIMESTEP
90
ITEM: NUMBER OF ATOMS
50
ITEM: BOX BOUNDS pp pp pp
0.0000000000000000e+00 6.4329369999999999e+00
0.0000000000000000e+00 6.4329369999999999e+00
0.0000000000000000e+00 6.4329374999999999e+01
ITEM: ATOMS id mol type q xs ys zs
11 3 1 -0.0776621 0.276546 0.80558 0.35161
12 3 2 0.0194155 0.219929 0.718906 0.365261
13 3 2 0.0194155 0.445455 0.760382 0.349023
14 3 2 0.0194155 0.250428 0.974268 0.352805
15 3 2 0.0194155 0.196903 0.757551 0.336828
21 5 1 -0.0776621 0.808205 0.0755266 0.327317
22 5 2 0.0194155 0.945783 0.147845 0.319656
23 5 2 0.0194155 0.733828 0.192505 0.337697
24 5 2 0.0194155 0.859931 0.93208 0.335996
25 5 2 0.0194155 0.691758 0.0329881 0.315689
38 8 2 0.0194155 0.100979 0.307931 0.380717
30 6 2 0.0194155 0.643122 0.0236726 0.375282
40 8 2 0.0194155 0.227237 0.387415 0.404313
37 8 2 0.0194155 0.251434 0.123605 0.397035
39 8 2 0.0194155 0.376455 0.318647 0.380406
26 6 1 -0.0776621 0.725201 0.89323 0.383887
27 6 2 0.0194155 0.678193 0.909863 0.400669
28 6 2 0.0194155 0.678364 0.741162 0.377829
29 6 2 0.0194155 0.893893 0.92152 0.38167
36 8 1 -0.0776621 0.240994 0.280968 0.390778
1 1 1 -0.0776621 0.563826 0.617761 0.533264
4 1 2 0.0194155 0.510489 0.683714 0.547937
16 4 1 -0.0776621 0.372625 0.121036 0.560172
17 4 2 0.0194155 0.445069 -0.00130045 0.570099
18 4 2 0.0194155 0.369821 0.0541391 0.543797
19 4 2 0.0194155 0.466991 0.258973 0.560438
20 4 2 0.0194155 0.204314 0.150654 0.564661
46 10 1 -0.0776621 0.871017 0.11177 0.524792
47 10 2 0.0194155 0.716706 0.178113 0.522853
48 10 2 0.0194155 0.883595 0.0637349 0.541253
49 10 2 0.0194155 0.990584 0.224134 0.520972
50 10 2 0.0194155 0.886382 0.978073 0.514437
2 1 2 0.0194155 0.623673 0.748485 0.523798
5 1 2 0.0194155 0.698891 0.510966 0.535106
3 1 2 0.0194155 0.436974 0.532773 0.525253
6 2 1 -0.0776621 0.589726 0.355836 0.661353
7 2 2 0.0194155 0.68626 0.438745 0.672426
8 2 2 0.0194155 0.687333 0.248854 0.65238
9 2 2 0.0194155 0.513297 0.457148 0.649767
10 2 2 0.0194155 0.476396 0.267167 0.669674
31 7 1 -0.0776621 0.162142 0.56551 0.693555
32 7 2 0.0194155 0.0318143 0.503466 0.70252
33 7 2 0.0194155 0.309944 0.521888 0.701465
34 7 2 0.0194155 0.141271 0.737173 0.693745
35 7 2 0.0194155 0.153961 0.50903 0.677672
41 9 1 -0.0776621 0.703326 0.860644 0.688267
42 9 2 0.0194155 0.549534 0.905551 0.693581
43 9 2 0.0194155 0.776569 0.738258 0.698892
44 9 2 0.0194155 0.797569 -0.00133332 0.687001
45 9 2 0.0194155 0.685758 0.786913 0.67357
ITEM: TIMESTEP
100
ITEM: NUMBER OF ATOMS
50
ITEM: BOX BOUNDS pp pp pp
0.0000000000000000e+00 6.4329369999999999e+00
0.0000000000000000e+00 6.4329369999999999e+00
0.0000000000000000e+00 6.4329374999999999e+01
ITEM: ATOMS id mol type q xs ys zs
11 3 1 -0.0776621 0.278922 0.80317 0.350939
12 3 2 0.0194155 0.205605 0.726125 0.364274
13 3 2 0.0194155 0.447944 0.766045 0.348152
14 3 2 0.0194155 0.254257 0.971712 0.351031
15 3 2 0.0194155 0.191048 0.738008 0.337597
21 5 1 -0.0776621 0.812887 0.0857913 0.327132
22 5 2 0.0194155 0.936131 0.147539 0.317151
23 5 2 0.0194155 0.757093 0.191695 0.339458
24 5 2 0.0194155 0.850748 0.933338 0.33419
25 5 2 0.0194155 0.683371 0.0529536 0.316871
38 8 2 0.0194155 0.0967157 0.291892 0.383908
30 6 2 0.0194155 0.646189 0.0126108 0.376242
40 8 2 0.0194155 0.249491 0.402838 0.404887
37 8 2 0.0194155 0.251415 0.12358 0.398468
39 8 2 0.0194155 0.380116 0.308326 0.381967
26 6 1 -0.0776621 0.729365 0.885556 0.384549
27 6 2 0.0194155 0.676301 0.883004 0.401029
28 6 2 0.0194155 0.692944 0.741263 0.376477
29 6 2 0.0194155 0.897489 0.916973 0.384132
36 8 1 -0.0776621 0.246115 0.282579 0.392546
1 1 1 -0.0776621 0.563803 0.618533 0.532743
4 1 2 0.0194155 0.505772 0.670587 0.547822
16 4 1 -0.0776621 0.371541 0.114615 0.56069
17 4 2 0.0194155 0.435614 0.00348758 0.572092
18 4 2 0.0194155 0.396133 0.0604008 0.544338
19 4 2 0.0194155 0.447024 0.262812 0.562457
20 4 2 0.0194155 0.202803 0.135803 0.563922
46 10 1 -0.0776621 0.870432 0.106651 0.523796
47 10 2 0.0194155 0.717389 0.169634 0.519883
48 10 2 0.0194155 0.87519 0.0617934 0.540341
49 10 2 0.0194155 0.99034 0.222399 0.520486
50 10 2 0.0194155 0.895839 0.96718 0.514322
2 1 2 0.0194155 0.624879 0.748867 0.523501
5 1 2 0.0194155 0.689301 0.503718 0.535603
3 1 2 0.0194155 0.438556 0.549204 0.523301
6 2 1 -0.0776621 0.577514 0.357271 0.66068
7 2 2 0.0194155 0.681663 0.449 0.670411
8 2 2 0.0194155 0.672814 0.254763 0.65093
9 2 2 0.0194155 0.486268 0.464111 0.650748
10 2 2 0.0194155 0.472095 0.261699 0.669754
31 7 1 -0.0776621 0.161743 0.569923 0.69393
32 7 2 0.0194155 0.0309538 0.511238 0.703116
33 7 2 0.0194155 0.308258 0.513884 0.700939
34 7 2 0.0194155 0.165187 0.741872 0.694272
35 7 2 0.0194155 0.149049 0.514677 0.677988
41 9 1 -0.0776621 0.703276 0.865362 0.687964
42 9 2 0.0194155 0.563112 0.926417 0.695438
43 9 2 0.0194155 0.754896 0.728014 0.697562
44 9 2 0.0194155 0.827008 -0.0197357 0.687074
45 9 2 0.0194155 0.666163 0.81699 0.672349
